# vtk DataFile Version 4.2
3D Slicer output. SPACE=LPS
ASCII
DATASET POLYDATA
FIELD FieldData 2
MaterialNames 1 2 string
mtl1
NO_MATERIAL

MaterialLibraries 1 1 string
CIIFD_vtkMRMLModelNodeF.mtl

POINTS 1644 float
-1.66207 -24.0583 32.1505 -1.50409 -24.0493 32.0804 -1.48304 -24.1917 32.1478 
-1.811 -23.8823 32.159 -1.51662 -23.7663 32.0125 -1.52231 -24.3447 32.2794 
-1.82443 -24.0652 32.259 -1.22533 -24.0379 32.0645 -1.20967 -24.2769 32.1516 
-1.8991 -23.7248 32.1604 -1.7934 -23.7435 32.0999 -2.08094 -23.749 32.3164 
-1.38293 -23.7553 32.0201 -1.52563 -23.5314 31.9754 -1.57252 -23.4401 31.9731 
-1.79165 -23.4928 32.0434 -1.43181 -23.6706 32.0142 -1.75955 -24.4317 32.461 
-1.86076 -24.3375 32.454 -1.5326 -24.5651 32.4635 -1.31907 -24.6478 32.4673 
-1.19553 -24.4078 32.2273 -2.12049 -24.0559 32.4778 -1.22064 -24.0034 32.0607 
-1.18922 -24.041 32.079 -1.2075 -24.0224 32.0724 -1.06651 -24.1789 32.1716 
-0.902417 -24.3286 32.2377 -1.97531 -23.4564 32.1562 -2.25451 -23.7776 32.4796 
-2.31628 -23.4631 32.4836 -2.12191 -23.4339 32.2869 -1.59414 -23.362 31.9733 
-1.79723 -23.1488 32.0171 -1.7943 -24.6294 32.6371 -2.10193 -24.3649 32.6405 
-1.50459 -24.6741 32.5529 -1.52206 -24.8488 32.7484 -1.23183 -24.934 32.7763 
-1.16385 -24.6901 32.4666 -0.908744 -24.5992 32.3611 -2.38638 -24.1504 32.7545 
-2.41093 -24.003 32.7133 -0.902253 -24.2971 32.2326 -0.863209 -24.3347 32.2575 
-0.8826 -24.3146 32.2509 -2.02497 -23.151 32.1814 -2.41095 -23.7284 32.6273 
-2.57075 -23.4857 32.7519 -2.54812 -23.1652 32.7368 -2.28262 -23.1366 32.4517 
-1.62766 -23.1635 31.9809 -1.95035 -22.8674 32.1435 -1.78963 -22.8059 32.0449 
-1.65821 -23.0232 31.997 -1.70464 -22.8313 32.0238 -1.99631 -24.656 32.7588 
-1.8021 -24.786 32.7741 -2.28152 -24.3706 32.7763 -2.13733 -24.5495 32.7698 
-1.48054 -24.9882 32.8937 -1.80361 -24.9278 32.9212 -1.03129 -24.9558 32.7657 
-1.21095 -25.1466 33.031 -0.895604 -24.7576 32.4981 -0.608214 -24.6572 32.4818 
-0.75724 -24.4718 32.3672 -2.44339 -24.3598 32.8966 -2.66038 -24.0589 32.9572 
-2.55533 -23.7768 32.7836 -2.0992 -22.8494 32.3095 -2.71899 -23.7342 32.9337 
-2.71409 -23.4111 32.9013 -2.53319 -22.8493 32.802 -2.41065 -22.8812 32.6403 
-2.68867 -23.1253 32.9077 -2.25993 -22.8396 32.4846 -1.88951 -22.6121 32.1766 
-1.80009 -22.5188 32.152 -1.71601 -22.7481 32.0461 -1.73346 -22.5305 32.1298 
-2.12222 -24.6909 32.8567 -2.36559 -24.6193 32.9634 -1.50704 -25.1278 33.0559 
-2.10807 -24.9437 33.0587 -1.80945 -25.0904 33.0905 -0.886528 -24.9651 32.7586 
-0.896818 -25.185 33.0595 -1.20574 -25.2638 33.1729 -0.65681 -24.968 32.7571 
-0.496628 -24.9307 32.755 -0.537989 -24.6544 32.5303 -0.61486 -24.5887 32.4556 
-0.588834 -24.6108 32.4836 -2.70805 -24.3314 33.0765 -2.49963 -24.6232 33.0537 
-2.80157 -24.0308 33.0611 -2.08668 -22.5415 32.4186 -2.87143 -23.7726 33.0677 
-2.87293 -23.488 33.051 -2.83609 -23.1864 33.0538 -2.37658 -22.5903 32.7408 
-2.73272 -22.8994 33.0245 -2.58744 -22.5538 33.0447 -2.70698 -22.7438 33.0734 
-1.73147 -22.464 32.1535 -1.80645 -22.2529 32.296 -1.70935 -22.264 32.251 
-2.39414 -24.7474 33.0583 -1.50487 -25.2511 33.1995 -2.14938 -25.2414 33.351 
-2.40625 -24.9506 33.2163 -1.81996 -25.3218 33.3442 -0.888466 -25.4102 33.3426 
-0.633147 -25.2807 33.1734 -0.581028 -25.1642 33.0267 -1.22017 -25.4226 33.3692 
-0.411712 -24.7713 32.7037 -0.351875 -24.8491 32.7811 -0.334115 -24.9923 32.9021 
-2.70898 -24.6534 33.2029 -2.97161 -24.3715 33.2692 -2.98825 -24.0706 33.2065 
-1.99274 -22.2247 32.4911 -2.1321 -22.2921 32.6131 -3.03284 -23.737 33.1931 
-3.01697 -23.4154 33.1846 -2.98016 -23.1266 33.2102 -2.23241 -22.2287 32.7988 
-2.44557 -22.2967 33.0314 -3.01007 -22.8487 33.3489 -2.7085 -22.551 33.2021 
-2.70719 -22.3474 33.3388 -2.86005 -22.5377 33.3793 -1.79037 -21.9605 32.4728 
-1.61451 -21.9658 32.3677 -1.66863 -22.1244 32.2981 -1.53426 -25.3958 33.3726 
-2.4271 -25.1321 33.37 -2.21979 -25.5491 33.6726 -2.40846 -25.2834 33.4895 
-2.0655 -25.5599 33.6396 -2.70314 -24.9349 33.3665 -1.77896 -25.5358 33.561 
-0.570429 -25.439 33.3449 -0.939476 -25.5445 33.5225 -0.645168 -25.5543 33.4865 
-0.317419 -25.2393 33.1826 -1.20521 -25.5459 33.5332 -1.47364 -25.5406 33.5384 
-0.310139 -24.8957 32.8426 -0.257276 -24.9721 32.9687 -2.97197 -24.6909 33.3895 
-3.03362 -24.5472 33.3735 -3.10619 -24.3313 33.3593 -3.17775 -24.0606 33.3587 
-1.98953 -21.9455 32.748 -2.10327 -22.0991 32.7351 -3.30538 -23.7531 33.437 
-3.26593 -23.4561 33.4116 -3.1396 -23.1784 33.3528 -2.20468 -21.9701 33.0642 
-2.10174 -21.9577 32.9049 -2.39531 -22.181 33.075 -2.63757 -22.2122 33.3769 
-3.30171 -23.1514 33.5212 -3.30247 -22.8556 33.6561 -3.14517 -22.5315 33.6818 
-3.00602 -22.5587 33.508 -2.89649 -22.2648 33.6245 -3.00548 -22.3723 33.6425 
-1.79814 -21.7445 32.7339 -1.5324 -21.8143 32.4125 -1.55158 -21.7157 32.4838 
-2.69719 -25.2114 33.5613 -2.43184 -25.4646 33.6643 -2.39589 -25.7278 33.9423 
-2.41033 -25.5696 33.7596 -2.09451 -25.785 33.9153 -2.67481 -25.3396 33.6556 
-1.83501 -25.654 33.7014 -2.99223 -24.9629 33.5519 -1.51898 -25.6592 33.6906 
-0.291397 -25.4318 33.3687 -0.323819 -25.5596 33.4837 -1.19379 -25.6405 33.6679 
-0.88529 -25.6689 33.6807 -0.574846 -25.7138 33.6476 -0.190277 -25.2595 33.3016 
-0.207273 -25.1815 33.2456 -0.226416 -25.0828 33.1211 -3.30779 -24.6949 33.6528 
-3.29184 -24.346 33.5219 -3.33235 -24.0352 33.4946 -1.8223 -21.67 32.9109 
-3.51008 -23.7726 33.639 -3.49277 -23.4646 33.6393 -2.07517 -21.8329 33.0738 
-2.36373 -21.9769 33.32 -2.15056 -21.7746 33.3602 -2.72574 -22.086 33.6648 
-2.42753 -21.9605 33.4559 -3.45549 -23.1418 33.6961 -3.5386 -22.8446 33.9644 
-3.32251 -22.5903 33.85 -3.16146 -22.2695 33.9436 -3.00528 -22.2488 33.7651 
-3.29044 -22.4252 33.9493 -1.68659 -21.6397 32.7339 -1.46683 -21.6797 32.4706 
-1.51588 -21.632 32.5396 -1.44716 -21.6485 32.488 -2.84576 -25.2691 33.6807 
-2.67711 -25.5375 33.8445 -2.69838 -25.6645 34.0003 -2.39961 -25.8462 34.1167 
-2.10119 -25.8698 34.0462 -1.79932 -25.8364 33.9432 -3.1714 -24.9433 33.6548 
-3.02946 -25.1046 33.6596 -1.51431 -25.8599 33.9779 -1.23922 -25.8428 33.9604 
-0.179167 -25.3338 33.3742 -0.18291 -25.425 33.4793 -0.283485 -25.7212 33.6549 
-0.166557 -25.5595 33.5882 -0.184498 -25.4939 33.5587 -1.03421 -25.8458 33.9585 
-0.876518 -25.8608 33.947 -0.614846 -25.8447 33.8299 -0.305756 -25.8335 33.781 
-3.60519 -24.6864 33.9516 -3.48219 -24.9699 33.9557 -3.27818 -24.9826 33.7687 
-3.45564 -24.3397 33.6699 -3.59513 -24.3576 33.823 -3.49328 -24.0565 33.6547 
-1.83658 -21.6078 33.0967 -1.51418 -21.3412 33.0465 -1.52183 -21.4975 32.7507 
-3.60803 -23.7468 33.7468 -3.60761 -23.4469 33.7781 -1.98881 -21.6475 33.3544 
-2.36432 -21.8318 33.6596 -2.11378 -21.6521 33.659 -2.53227 -21.9424 33.6736 
-3.01574 -22.1173 33.9729 -2.71505 -21.9483 33.9177 -3.59993 -23.1771 33.8558 
-3.61878 -23.0079 33.97 -3.39876 -22.544 33.9947 -3.74286 -22.8621 34.2707 
-3.57532 -22.5431 34.2596 -3.30804 -22.2796 34.1385 -1.4314 -21.6297 32.5112 
-2.87115 -25.5334 33.9428 -3.0177 -25.2602 33.7764 -3.00715 -25.6864 34.253 
-2.69441 -25.8433 34.2702 -2.41781 -25.9298 34.2846 -2.13302 -25.9692 34.2653 
-1.81385 -25.9886 34.2423 -1.50036 -26.0016 34.2551 -1.21414 -26.0081 34.2601 
-0.164893 -25.6267 33.6493 -0.16885 -25.6646 33.7006 -0.919217 -26.0175 34.2458 
-0.632437 -25.9387 33.9897 -0.303845 -25.9709 33.9792 -0.15859 -25.8289 33.8502 
-0.174337 -25.7208 33.7698 -3.73493 -24.3474 33.9989 -3.79549 -24.654 34.2143 
-3.6277 -24.932 34.1071 -3.26894 -25.2141 33.9318 -3.60253 -25.1503 34.2355 
-3.33464 -25.2583 34.0372 -3.61279 -24.0494 33.7832 -3.74094 -24.0657 33.9479 
-1.81019 -21.4983 33.3546 -1.6463 -21.3583 33.3539 -1.31819 -21.364 32.7509 
-1.20875 -21.077 33.0468 -1.49918 -21.2166 33.3542 -1.346 -21.0682 33.3728 
-1.37403 -21.5365 32.5808 -3.75342 -23.7638 33.9478 -3.74459 -23.4355 33.9822 
-1.80893 -21.4202 33.6346 -2.44046 -21.7728 33.9482 -2.25584 -21.6552 33.9559 
-2.05981 -21.5183 33.9563 -2.99546 -21.9611 34.254 -3.26543 -22.1534 34.2723 
-2.69438 -21.7805 34.2481 -3.67706 -23.1555 33.9741 -3.81586 -23.1593 34.2077 
-3.901 -22.8678 34.5785 -3.9096 -23.1571 34.385 -3.74804 -22.5578 34.5593 
-3.59979 -22.346 34.5309 -3.39695 -22.2557 34.3116 -3.04971 -25.4554 33.9854 
-3.00557 -25.5681 34.0759 -3.18617 -25.5627 34.232 -3.31627 -25.6825 34.5753 
-3.32889 -25.5344 34.3539 -3.00395 -25.852 34.5591 -2.70362 -25.9667 34.5534 
-2.40317 -26.0323 34.5585 -2.10532 -26.0727 34.561 -1.79799 -26.0981 34.5709 
-1.48911 -26.1052 34.5735 -1.1812 -26.1029 34.5665 -0.611658 -26.0592 34.2548 
-0.896288 -26.1047 34.5453 -0.164445 -25.8979 33.9462 -0.167696 -25.9443 33.9798 
-0.307122 -26.1115 34.2797 -0.184173 -26.0149 34.0691 -3.90047 -24.3597 34.2621 
-3.91502 -24.0617 34.2266 -3.74216 -24.9504 34.2908 -3.9072 -24.6458 34.3926 
-3.74866 -25.2593 34.5508 -3.59461 -25.2928 34.3705 -3.50789 -25.2835 34.2515 
-3.29526 -25.468 34.226 -1.51447 -21.1735 33.654 -1.25314 -21.377 32.7074 
-1.29024 -21.4455 32.6626 -1.23905 -21.3113 32.7644 -1.18187 -21.2056 32.8616 
-1.06977 -21.0712 32.9639 -1.17367 -20.9343 33.3494 -0.908607 -20.9423 33.0298 
-0.899694 -20.9018 33.0778 -1.3571 -21.0436 33.6791 -1.19006 -20.9139 33.6538 
-3.93474 -23.7412 34.2603 -3.90168 -23.4416 34.2589 -1.78008 -21.339 33.8674 
-2.39454 -21.6524 34.1581 -2.14543 -21.4622 34.2681 -1.82087 -21.3383 33.9975 
-1.9509 -21.3623 34.2614 -3.18985 -21.9625 34.5393 -2.99605 -21.8175 34.5745 
-3.33635 -22.0695 34.5515 -2.47494 -21.634 34.2924 -2.7117 -21.6584 34.5539 
-4.01496 -23.1528 34.5945 -4.03123 -22.8615 34.8794 -3.85291 -22.5545 34.8163 
-4.06335 -23.4691 34.5497 -3.60045 -22.25 34.7112 -3.51442 -22.2328 34.5487 
-3.48767 -25.5342 34.5413 -3.57182 -25.6763 34.8539 -3.6009 -25.5465 34.6947 
-3.30717 -25.8514 34.8615 -3.00211 -25.9992 34.8746 -2.70661 -26.0764 34.8592 
-2.39781 -26.1436 34.9184 -2.06293 -26.1529 34.8631 -1.81828 -26.1563 34.8581 
-1.62468 -26.1528 34.8589 -1.47869 -26.1514 34.9027 -1.21742 -26.1358 34.8676 
-0.91275 -26.121 34.8305 -0.592673 -26.1173 34.5762 -0.188068 -26.1002 34.2514 
[...]
CELL_DATA 2937
FIELD FieldData 2
MaterialIds 1 2937 int
1 1 1 1 1 1 1 1 1 
1 1 1 1 1 1 1 1 1 
1 1 1 1 1 1 1 1 1 
1 1 1 1 1 1 1 1 1 
1 1 1 1 1 1 1 1 1 
1 1 1 1 1 1 1 1 1 
1 1 1 1 1 1 1 1 1 
1 1 1 1 1 1 1 1 1 
1 1 1 1 1 1 1 1 1 
1 1 1 1 1 1 1 1 1 
1 1 1 1 1 1 1 1 1 
1 1 1 1 1 1 1 1 1 
1 1 1 1 1 1 1 1 1 
1 1 1 1 1 1 1 1 1 
1 1 1 1 1 1 1 1 1 
1 1 1 1 1 1 1 1 1 
1 1 1 1 1 1 1 1 1 
1 1 1 1 1 1 1 1 1 
1 1 1 1 1 1 1 1 1 
1 1 1 1 1 1 1 1 1 
1 1 1 1 1 1 1 1 1 
1 1 1 1 1 1 1 1 1 
1 1 1 1 1 1 1 1 1 
1 1 1 1 1 1 1 1 1 
1 1 1 1 1 1 1 1 1 
1 1 1 1 1 1 1 1 1 
1 1 1 1 1 1 1 1 1 
1 1 1 1 1 1 1 1 1 
1 1 1 1 1 1 1 1 1 
1 1 1 1 1 1 1 1 1 
1 1 1 1 1 1 1 1 1 
1 1 1 1 1 1 1 1 1 
1 1 1 1 1 1 1 1 1 
1 1 1 1 1 1 1 1 1 
1 1 1 1 1 1 1 1 1 
1 1 1 1 1 1 1 1 1 
1 1 1 1 1 1 1 1 1 
1 1 1 1 1 1 1 1 1 
1 1 1 1 1 1 1 1 1 
1 1 1 1 1 1 1 1 1 
1 1 1 1 1 1 1 1 1 
1 1 1 1 1 1 1 1 1 
1 1 1 1 1 1 1 1 1 
1 1 1 1 1 1 1 1 1 
1 1 1 1 1 1 1 1 1 
1 1 1 1 1 1 1 1 1 
1 1 1 1 1 1 1 1 1 
1 1 1 1 1 1 1 1 1 
1 1 1 1 1 1 1 1 1 
1 1 1 1 1 1 1 1 1 
1 1 1 1 1 1 1 1 1 
1 1 1 1 1 1 1 1 1 
1 1 1 1 1 1 1 1 1 
1 1 1 1 1 1 1 1 1 
1 1 1 1 1 1 1 1 1 
1 1 1 1 1 1 1 1 1 
1 1 1 1 1 1 1 1 1 
1 1 1 1 1 1 1 1 1 
1 1 1 1 1 1 1 1 1 
1 1 1 1 1 1 1 1 1 
1 1 1 1 1 1 1 1 1 
1 1 1 1 1 1 1 1 1 
1 1 1 1 1 1 1 1 1 
1 1 1 1 1 1 1 1 1 
1 1 1 1 1 1 1 1 1 
1 1 1 1 1 1 1 1 1 
1 1 1 1 1 1 1 1 1 
1 1 1 1 1 1 1 1 1 
1 1 1 1 1 1 1 1 1 
1 1 1 1 1 1 1 1 1 
1 1 1 1 1 1 1 1 1 
1 1 1 1 1 1 1 1 1 
1 1 1 1 1 1 1 1 1 
1 1 1 1 1 1 1 1 1 
1 1 1 1 1 1 1 1 1 
1 1 1 1 1 1 1 1 1 
1 1 1 1 1 1 1 1 1 
1 1 1 1 1 1 1 1 1 
1 1 1 1 1 1 1 1 1 
1 1 1 1 1 1 1 1 1 
1 1 1 1 1 1 1 1 1 
1 1 1 1 1 1 1 1 1 
1 1 1 1 1 1 1 1 1 
1 1 1 1 1 1 1 1 1 
1 1 1 1 1 1 1 1 1 
1 1 1 1 1 1 1 1 1 
1 1 1 1 1 1 1 1 1 
1 1 1 1 1 1 1 1 1 
1 1 1 1 1 1 1 1 1 
1 1 1 1 1 1 1 1 1 
1 1 1 1 1 1 1 1 1 
1 1 1 1 1 1 1 1 1 
1 1 1 1 1 1 1 1 1 
1 1 1 1 1 1 1 1 1 
1 1 1 1 1 1 1 1 1 
1 1 1 1 1 1 1 1 1 
1 1 1 1 1 1 1 1 1 
1 1 1 1 1 1 1 1 1 
1 1 1 1 1 1 1 1 1 
1 1 1 1 1 1 1 1 1 
1 1 1 1 1 1 1 1 1 
1 1 1 1 1 1 1 1 1 
1 1 1 1 1 1 1 1 1 
1 1 1 1 1 1 1 1 1 
1 1 1 1 1 1 1 1 1 
1 1 1 1 1 1 1 1 1 
1 1 1 1 1 1 1 1 1 
1 1 1 1 1 1 1 1 1 
1 1 1 1 1 1 1 1 1 
1 1 1 1 1 1 1 1 1 
1 1 1 1 1 1 1 1 1 
1 1 1 1 1 1 1 1 1 
1 1 1 1 1 1 1 1 1 
1 1 1 1 1 1 1 1 1 
1 1 1 1 1 1 1 1 1 
1 1 1 1 1 1 1 1 1 
1 1 1 1 1 1 1 1 1 
1 1 1 1 1 1 1 1 1 
1 1 1 1 1 1 1 1 1 
1 1 1 1 1 1 1 1 1 
1 1 1 1 1 1 1 1 1 
1 1 1 1 1 1 1 1 1 
1 1 1 1 1 1 1 1 1 
1 1 1 1 1 1 1 1 1 
1 1 1 1 1 1 1 1 1 
1 1 1 1 1 1 1 1 1 
1 1 1 1 1 1 1 1 1 
1 1 1 1 1 1 1 1 1 
1 1 1 1 1 1 1 1 1 
1 1 1 1 1 1 1 1 1 
1 1 1 1 1 1 1 1 1 
1 1 1 1 1 1 1 1 1 
1 1 1 1 1 1 1 1 1 
1 1 1 1 1 1 1 1 1 
1 1 1 1 1 1 1 1 1 
1 1 1 1 1 1 1 1 1 
1 1 1 1 1 1 1 1 1 
1 1 1 1 1 1 1 1 1 
1 1 1 1 1 1 1 1 1 
1 1 1 1 1 1 1 1 1 
1 1 1 1 1 1 1 1 1 
1 1 1 1 1 1 1 1 1 
1 1 1 1 1 1 1 1 1 
1 1 1 1 1 1 1 1 1 
1 1 1 1 1 1 1 1 1 
1 1 1 1 1 1 1 1 1 
1 1 1 1 1 1 1 1 1 
1 1 1 1 1 1 1 1 1 
1 1 1 1 1 1 1 1 1 
1 1 1 1 1 1 1 1 1 
1 1 1 1 1 1 1 1 1 
1 1 1 1 1 1 1 1 1 
1 1 1 1 1 1 1 1 1 
1 1 1 1 1 1 1 1 1 
1 1 1 1 1 1 1 1 1 
1 1 1 1 1 1 1 1 1 
1 1 1 1 1 1 1 1 1 
1 1 1 1 1 1 1 1 1 
1 1 1 1 1 1 1 1 1 
1 1 1 1 1 1 1 1 1 
1 1 1 1 1 1 1 1 1 
1 1 1 1 1 1 1 1 1 
1 1 1 1 1 1 1 1 1 
1 1 1 1 1 1 1 1 1 
1 1 1 1 1 1 1 1 1 
1 1 1 1 1 1 1 1 1 
1 1 1 1 1 1 1 1 1 
1 1 1 1 1 1 1 1 1 
1 1 1 1 1 1 1 1 1 
1 1 1 1 1 1 1 1 1 
1 1 1 1 1 1 1 1 1 
1 1 1 1 1 1 1 1 1 
1 1 1 1 1 1 1 1 1 
1 1 1 1 1 1 1 1 1 
1 1 1 1 1 1 1 1 1 
1 1 1 1 1 1 1 1 1 
1 1 1 1 1 1 1 1 1 
1 1 1 1 1 1 1 1 1 
1 1 1 1 1 1 1 1 1 
1 1 1 1 1 1 1 1 1 
1 1 1 1 1 1 1 1 1 
1 1 1 1 1 1 1 1 1 
1 1 1 1 1 1 1 1 1 
1 1 1 1 1 1 1 1 1 
1 1 1 1 1 1 1 1 1 
1 1 1 1 1 1 1 1 1 
1 1 1 1 1 1 1 1 1 
1 1 1 1 1 1 1 1 1 
1 1 1 1 1 1 1 1 1 
1 1 1 1 1 1 1 1 1 
1 1 1 1 1 1 1 1 1 
1 1 1 1 1 1 1 1 1 
1 1 1 1 1 1 1 1 1 
1 1 1 1 1 1 1 1 1 
1 1 1 1 1 1 1 1 1 
1 1 1 1 1 1 1 1 1 
1 1 1 1 1 1 1 1 1 
1 1 1 1 1 1 1 1 1 
1 1 1 1 1 1 1 1 1 
1 1 1 1 1 1 1 1 1 
1 1 1 1 1 1 1 1 1 
1 1 1 1 1 1 1 1 1 
1 1 1 1 1 1 1 1 1 
1 1 1 1 1 1 1 1 1 
1 1 1 1 1 1 1 1 1 
1 1 1 1 1 1 1 1 1 
1 1 1 1 1 1 1 1 1 
1 1 1 1 1 1 1 1 1 
1 1 1 1 1 1 1 1 1 
1 1 1 1 1 1 1 1 1 
1 1 1 1 1 1 1 1 1 
1 1 1 1 1 1 1 1 1 
1 1 1 1 1 1 1 1 1 
1 1 1 1 1 1 1 1 1 
1 1 1 1 1 1 1 1 1 
1 1 1 1 1 1 1 1 1 
1 1 1 1 1 1 1 1 1 
1 1 1 1 1 1 1 1 1 
1 1 1 1 1 1 1 1 1 
1 1 1 1 1 1 1 1 1 
1 1 1 1 1 1 1 1 1 
1 1 1 1 1 1 1 1 1 
1 1 1 1 1 1 1 1 1 
1 1 1 1 1 1 1 1 1 
1 1 1 1 1 1 1 1 1 
1 1 1 1 1 1 1 1 1 
1 1 1 1 1 1 1 1 1 
1 1 1 1 1 1 1 1 1 
1 1 1 1 1 1 1 1 1 
1 1 1 1 1 1 1 1 1 
1 1 1 1 1 1 1 1 1 
1 1 1 1 1 1 1 1 1 
1 1 1 1 1 1 1 1 1 
1 1 1 1 1 1 1 1 1 
1 1 1 1 1 1 1 1 1 
1 1 1 1 1 1 1 1 1 
1 1 1 1 1 1 1 1 1 
1 1 1 1 1 1 1 1 1 
1 1 1 1 1 1 1 1 1 
1 1 1 1 1 1 1 1 1 
1 1 1 1 1 1 1 1 1 
1 1 1 1 1 1 1 1 1 
1 1 1 1 1 1 1 1 1 
1 1 1 1 1 1 1 1 1 
1 1 1 1 1 1 1 1 1 
1 1 1 1 1 1 1 1 1 
1 1 1 1 1 1 1 1 1 
1 1 1 1 1 1 1 1 1 
1 1 1 1 1 1 1 1 1 
1 1 1 1 1 1 1 1 1 
1 1 1 1 1 1 1 1 1 
1 1 1 1 1 1 1 1 1 
1 1 1 1 1 1 1 1 1 
1 1 1 1 1 1 1 1 1 
1 1 1 1 1 1 1 1 1 
1 1 1 1 1 1 1 1 1 
1 1 1 1 1 1 1 1 1 
1 1 1 1 1 1 1 1 1 
1 1 1 1 1 1 1 1 1 
1 1 1 1 1 1 1 1 1 
1 1 1 1 1 1 1 1 1 
1 1 1 1 1 1 1 1 1 
1 1 1 1 1 1 1 1 1 
1 1 1 1 1 1 1 1 1 
1 1 1 1 1 1 1 1 1 
1 1 1 1 1 1 1 1 1 
1 1 1 1 1 1 1 1 1 
1 1 1 1 1 1 1 1 1 
1 1 1 1 1 1 1 1 1 
1 1 1 1 1 1 1 1 1 
1 1 1 1 1 1 1 1 1 
1 1 1 1 1 1 1 1 1 
1 1 1 1 1 1 1 1 1 
1 1 1 1 1 1 1 1 1 
1 1 1 1 1 1 1 1 1 
1 1 1 1 1 1 1 1 1 
1 1 1 1 1 1 1 1 1 
1 1 1 1 1 1 1 1 1 
1 1 1 1 1 1 1 1 1 
1 1 1 1 1 1 1 1 1 
1 1 1 1 1 1 1 1 1 
1 1 1 1 1 1 1 1 1 
1 1 1 1 1 1 1 1 1 
1 1 1 1 1 1 1 1 1 
1 1 1 1 1 1 1 1 1 
1 1 1 1 1 1 1 1 1 
1 1 1 1 1 1 1 1 1 
1 1 1 1 1 1 1 1 1 
1 1 1 1 1 1 1 1 1 
1 1 1 1 1 1 1 1 1 
1 1 1 1 1 1 1 1 1 
1 1 1 1 1 1 1 1 1 
1 1 1 1 1 1 1 1 1 
1 1 1 1 1 1 1 1 1 
1 1 1 1 1 1 1 1 1 
1 1 1 1 1 1 1 1 1 
1 1 1 1 1 1 1 1 1 
1 1 1 1 1 1 1 1 1 
1 1 1 1 1 1 1 1 1 
1 1 1 1 1 1 1 1 1 
1 1 1 1 1 1 1 1 1 
1 1 1 1 1 1 1 1 1 
1 1 1 1 1 1 1 1 1 
1 1 1 1 1 1 1 1 1 
1 1 1 1 1 1 1 1 1 
1 1 1 1 1 1 1 1 1 
1 1 1 1 1 1 1 1 1 
1 1 1 1 1 1 1 1 1 
1 1 1 1 1 1 1 1 1 
1 1 1 1 1 1 1 1 1 
1 1 1 1 1 1 1 1 1 
1 1 1 1 1 1 1 1 1 
1 1 1 1 1 1 1 1 1 
1 1 1 1 1 1 1 1 1 
1 1 1 1 1 1 1 1 1 
1 1 1 1 1 1 1 1 1 
1 1 1 1 1 1 1 1 1 
1 1 1 1 1 1 1 1 1 
1 1 1 1 1 1 1 1 1 
1 1 1 1 1 1 1 1 1 
1 1 1 1 1 1 1 1 1 
1 1 1 1 1 1 1 1 1 
1 1 1 1 1 1 1 1 1 
1 1 1 1 1 1 1 1 1 
1 1 1 1 1 1 1 1 1 
1 1 1 1 1 1 1 1 1 
1 1 1 
GroupIds 1 2937 float
0 0 0 0 0 0 0 0 0 
0 0 0 0 0 0 0 0 0 
0 0 0 0 0 0 0 0 0 
0 0 0 0 0 0 0 0 0 
0 0 0 0 0 0 0 0 0 
0 0 0 0 0 0 0 0 0 
0 0 0 0 0 0 0 0 0 
0 0 0 0 0 0 0 0 0 
0 0 0 0 0 0 0 0 0 
0 0 0 0 0 0 0 0 0 
0 0 0 0 0 0 0 0 0 
0 0 0 0 0 0 0 0 0 
0 0 0 0 0 0 0 0 0 
0 0 0 0 0 0 0 0 0 
0 0 0 0 0 0 0 0 0 
0 0 0 0 0 0 0 0 0 
0 0 0 0 0 0 0 0 0 
0 0 0 0 0 0 0 0 0 
0 0 0 0 0 0 0 0 0 
0 0 0 0 0 0 0 0 0 
0 0 0 0 0 0 0 0 0 
0 0 0 0 0 0 0 0 0 
0 0 0 0 0 0 0 0 0 
0 0 0 0 0 0 0 0 0 
0 0 0 0 0 0 0 0 0 
0 0 0 0 0 0 0 0 0 
0 0 0 0 0 0 0 0 0 
0 0 0 0 0 0 0 0 0 
0 0 0 0 0 0 0 0 0 
0 0 0 0 0 0 0 0 0 
0 0 0 0 0 0 0 0 0 
0 0 0 0 0 0 0 0 0 
0 0 0 0 0 0 0 0 0 
0 0 0 0 0 0 0 0 0 
0 0 0 0 0 0 0 0 0 
0 0 0 0 0 0 0 0 0 
0 0 0 0 0 0 0 0 0 
0 0 0 0 0 0 0 0 0 
0 0 0 0 0 0 0 0 0 
0 0 0 0 0 0 0 0 0 
0 0 0 0 0 0 0 0 0 
0 0 0 0 0 0 0 0 0 
0 0 0 0 0 0 0 0 0 
0 0 0 0 0 0 0 0 0 
0 0 0 0 0 0 0 0 0 
0 0 0 0 0 0 0 0 0 
0 0 0 0 0 0 0 0 0 
0 0 0 0 0 0 0 0 0 
0 0 0 0 0 0 0 0 0 
0 0 0 0 0 0 0 0 0 
0 0 0 0 0 0 0 0 0 
0 0 0 0 0 0 0 0 0 
0 0 0 0 0 0 0 0 0 
0 0 0 0 0 0 0 0 0 
0 0 0 0 0 0 0 0 0 
0 0 0 0 0 0 0 0 0 
0 0 0 0 0 0 0 0 0 
0 0 0 0 0 0 0 0 0 
0 0 0 0 0 0 0 0 0 
0 0 0 0 0 0 0 0 0 
0 0 0 0 0 0 0 0 0 
0 0 0 0 0 0 0 0 0 
0 0 0 0 0 0 0 0 0 
0 0 0 0 0 0 0 0 0 
0 0 0 0 0 0 0 0 0 
0 0 0 0 0 0 0 0 0 
0 0 0 0 0 0 0 0 0 
0 0 0 0 0 0 0 0 0 
0 0 0 0 0 0 0 0 0 
0 0 0 0 0 0 0 0 0 
0 0 0 0 0 0 0 0 0 
0 0 0 0 0 0 0 0 0 
0 0 0 0 0 0 0 0 0 
0 0 0 0 0 0 0 0 0 
0 0 0 0 0 0 0 0 0 
0 0 0 0 0 0 0 0 0 
0 0 0 0 0 0 0 0 0 
0 0 0 0 0 0 0 0 0 
0 0 0 0 0 0 0 0 0 
0 0 0 0 0 0 0 0 0 
0 0 0 0 0 0 0 0 0 
0 0 0 0 0 0 0 0 0 
0 0 0 0 0 0 0 0 0 
0 0 0 0 0 0 0 0 0 
0 0 0 0 0 0 0 0 0 
0 0 0 0 0 0 0 0 0 
0 0 0 0 0 0 0 0 0 
0 0 0 0 0 0 0 0 0 
0 0 0 0 0 0 0 0 0 
0 0 0 0 0 0 0 0 0 
0 0 0 0 0 0 0 0 0 
0 0 0 0 0 0 0 0 0 
0 0 0 0 0 0 0 0 0 
0 0 0 0 0 0 0 0 0 
0 0 0 0 0 0 0 0 0 
0 0 0 0 0 0 0 0 0 
0 0 0 0 0 0 0 0 0 
0 0 0 0 0 0 0 0 0 
0 0 0 0 0 0 0 0 0 
0 0 0 0 0 0 0 0 0 
0 0 0 0 0 0 0 0 0 
0 0 0 0 0 0 0 0 0 
0 0 0 0 0 0 0 0 0 
0 0 0 0 0 0 0 0 0 
0 0 0 0 0 0 0 0 0 
0 0 0 0 0 0 0 0 0 
0 0 0 0 0 0 0 0 0 
0 0 0 0 0 0 0 0 0 
0 0 0 0 0 0 0 0 0 
0 0 0 0 0 0 0 0 0 
0 0 0 0 0 0 0 0 0 
0 0 0 0 0 0 0 0 0 
0 0 0 0 0 0 0 0 0 
0 0 0 0 0 0 0 0 0 
0 0 0 0 0 0 0 0 0 
0 0 0 0 0 0 0 0 0 
0 0 0 0 0 0 0 0 0 
0 0 0 0 0 0 0 0 0 
0 0 0 0 0 0 0 0 0 
0 0 0 0 0 0 0 0 0 
0 0 0 0 0 0 0 0 0 
0 0 0 0 0 0 0 0 0 
0 0 0 0 0 0 0 0 0 
0 0 0 0 0 0 0 0 0 
0 0 0 0 0 0 0 0 0 
0 0 0 0 0 0 0 0 0 
0 0 0 0 0 0 0 0 0 
0 0 0 0 0 0 0 0 0 
0 0 0 0 0 0 0 0 0 
0 0 0 0 0 0 0 0 0 
0 0 0 0 0 0 0 0 0 
0 0 0 0 0 0 0 0 0 
0 0 0 0 0 0 0 0 0 
0 0 0 0 0 0 0 0 0 
0 0 0 0 0 0 0 0 0 
0 0 0 0 0 0 0 0 0 
0 0 0 0 0 0 0 0 0 
0 0 0 0 0 0 0 0 0 
0 0 0 0 0 0 0 0 0 
0 0 0 0 0 0 0 0 0 
0 0 0 0 0 0 0 0 0 
0 0 0 0 0 0 0 0 0 
0 0 0 0 0 0 0 0 0 
0 0 0 0 0 0 0 0 0 
0 0 0 0 0 0 0 0 0 
0 0 0 0 0 0 0 0 0 
0 0 0 0 0 0 0 0 0 
0 0 0 0 0 0 0 0 0 
0 0 0 0 0 0 0 0 0 
0 0 0 0 0 0 0 0 0 
0 0 0 0 0 0 0 0 0 
0 0 0 0 0 0 0 0 0 
0 0 0 0 0 0 0 0 0 
0 0 0 0 0 0 0 0 0 
0 0 0 0 0 0 0 0 0 
0 0 0 0 0 0 0 0 0 
0 0 0 0 0 0 0 0 0 
0 0 0 0 0 0 0 0 0 
0 0 0 0 0 0 0 0 0 
0 0 0 0 0 0 0 0 0 
0 0 0 0 0 0 0 0 0 
0 0 0 0 0 0 0 0 0 
0 0 0 0 0 0 0 0 0 
0 0 0 0 0 0 0 0 0 
0 0 0 0 0 0 0 0 0 
0 0 0 0 0 0 0 0 0 
0 0 0 0 0 0 0 0 0 
0 0 0 0 0 0 0 0 0 
0 0 0 0 0 0 0 0 0 
0 0 0 0 0 0 0 0 0 
0 0 0 0 0 0 0 0 0 
0 0 0 0 0 0 0 0 0 
0 0 0 0 0 0 0 0 0 
0 0 0 0 0 0 0 0 0 
0 0 0 0 0 0 0 0 0 
0 0 0 0 0 0 0 0 0 
0 0 0 0 0 0 0 0 0 
0 0 0 0 0 0 0 0 0 
0 0 0 0 0 0 0 0 0 
0 0 0 0 0 0 0 0 0 
0 0 0 0 0 0 0 0 0 
0 0 0 0 0 0 0 0 0 
0 0 0 0 0 0 0 0 0 
0 0 0 0 0 0 0 0 0 
0 0 0 0 0 0 0 0 0 
0 0 0 0 0 0 0 0 0 
0 0 0 0 0 0 0 0 0 
0 0 0 0 0 0 0 0 0 
0 0 0 0 0 0 0 0 0 
0 0 0 0 0 0 0 0 0 
0 0 0 0 0 0 0 0 0 
0 0 0 0 0 0 0 0 0 
0 0 0 0 0 0 0 0 0 
0 0 0 0 0 0 0 0 0 
0 0 0 0 0 0 0 0 0 
0 0 0 0 0 0 0 0 0 
0 0 0 0 0 0 0 0 0 
0 0 0 0 0 0 0 0 0 
0 0 0 0 0 0 0 0 0 
0 0 0 0 0 0 0 0 0 
0 0 0 0 0 0 0 0 0 
0 0 0 0 0 0 0 0 0 
0 0 0 0 0 0 0 0 0 
0 0 0 0 0 0 0 0 0 
0 0 0 0 0 0 0 0 0 
0 0 0 0 0 0 0 0 0 
0 0 0 0 0 0 0 0 0 
0 0 0 0 0 0 0 0 0 
0 0 0 0 0 0 0 0 0 
0 0 0 0 0 0 0 0 0 
0 0 0 0 0 0 0 0 0 
0 0 0 0 0 0 0 0 0 
0 0 0 0 0 0 0 0 0 
0 0 0 0 0 0 0 0 0 
0 0 0 0 0 0 0 0 0 
0 0 0 0 0 0 0 0 0 
0 0 0 0 0 0 0 0 0 
0 0 0 0 0 0 0 0 0 
0 0 0 0 0 0 0 0 0 
0 0 0 0 0 0 0 0 0 
0 0 0 0 0 0 0 0 0 
0 0 0 0 0 0 0 0 0 
0 0 0 0 0 0 0 0 0 
0 0 0 0 0 0 0 0 0 
0 0 0 0 0 0 0 0 0 
0 0 0 0 0 0 0 0 0 
0 0 0 0 0 0 0 0 0 
0 0 0 0 0 0 0 0 0 
0 0 0 0 0 0 0 0 0 
0 0 0 0 0 0 0 0 0 
0 0 0 0 0 0 0 0 0 
0 0 0 0 0 0 0 0 0 
0 0 0 0 0 0 0 0 0 
0 0 0 0 0 0 0 0 0 
0 0 0 0 0 0 0 0 0 
0 0 0 0 0 0 0 0 0 
0 0 0 0 0 0 0 0 0 
0 0 0 0 0 0 0 0 0 
0 0 0 0 0 0 0 0 0 
0 0 0 0 0 0 0 0 0 
0 0 0 0 0 0 0 0 0 
0 0 0 0 0 0 0 0 0 
0 0 0 0 0 0 0 0 0 
0 0 0 0 0 0 0 0 0 
0 0 0 0 0 0 0 0 0 
0 0 0 0 0 0 0 0 0 
0 0 0 0 0 0 0 0 0 
0 0 0 0 0 0 0 0 0 
0 0 0 0 0 0 0 0 0 
0 0 0 0 0 0 0 0 0 
0 0 0 0 0 0 0 0 0 
0 0 0 0 0 0 0 0 0 
0 0 0 0 0 0 0 0 0 
0 0 0 0 0 0 0 0 0 
0 0 0 0 0 0 0 0 0 
0 0 0 0 0 0 0 0 0 
0 0 0 0 0 0 0 0 0 
0 0 0 0 0 0 0 0 0 
0 0 0 0 0 0 0 0 0 
0 0 0 0 0 0 0 0 0 
0 0 0 0 0 0 0 0 0 
0 0 0 0 0 0 0 0 0 
0 0 0 0 0 0 0 0 0 
0 0 0 0 0 0 0 0 0 
0 0 0 0 0 0 0 0 0 
0 0 0 0 0 0 0 0 0 
0 0 0 0 0 0 0 0 0 
0 0 0 0 0 0 0 0 0 
0 0 0 0 0 0 0 0 0 
0 0 0 0 0 0 0 0 0 
0 0 0 0 0 0 0 0 0 
0 0 0 0 0 0 0 0 0 
0 0 0 0 0 0 0 0 0 
0 0 0 0 0 0 0 0 0 
0 0 0 0 0 0 0 0 0 
0 0 0 0 0 0 0 0 0 
0 0 0 0 0 0 0 0 0 
0 0 0 0 0 0 0 0 0 
0 0 0 0 0 0 0 0 0 
0 0 0 0 0 0 0 0 0 
0 0 0 0 0 0 0 0 0 
0 0 0 0 0 0 0 0 0 
0 0 0 0 0 0 0 0 0 
0 0 0 0 0 0 0 0 0 
0 0 0 0 0 0 0 0 0 
0 0 0 0 0 0 0 0 0 
0 0 0 0 0 0 0 0 0 
0 0 0 0 0 0 0 0 0 
0 0 0 0 0 0 0 0 0 
0 0 0 0 0 0 0 0 0 
0 0 0 0 0 0 0 0 0 
0 0 0 0 0 0 0 0 0 
0 0 0 0 0 0 0 0 0 
0 0 0 0 0 0 0 0 0 
0 0 0 0 0 0 0 0 0 
0 0 0 0 0 0 0 0 0 
0 0 0 0 0 0 0 0 0 
0 0 0 0 0 0 0 0 0 
0 0 0 0 0 0 0 0 0 
0 0 0 0 0 0 0 0 0 
0 0 0 0 0 0 0 0 0 
0 0 0 0 0 0 0 0 0 
0 0 0 0 0 0 0 0 0 
0 0 0 0 0 0 0 0 0 
0 0 0 0 0 0 0 0 0 
0 0 0 0 0 0 0 0 0 
0 0 0 0 0 0 0 0 0 
0 0 0 0 0 0 0 0 0 
0 0 0 0 0 0 0 0 0 
0 0 0 0 0 0 0 0 0 
0 0 0 0 0 0 0 0 0 
0 0 0 0 0 0 0 0 0 
0 0 0 0 0 0 0 0 0 
0 0 0 0 0 0 0 0 0 
0 0 0 0 0 0 0 0 0 
0 0 0 0 0 0 0 0 0 
0 0 0 0 0 0 0 0 0 
0 0 0 0 0 0 0 0 0 
0 0 0 0 0 0 0 0 0 
0 0 0 0 0 0 0 0 0 
0 0 0 0 0 0 0 0 0 
0 0 0 0 0 0 0 0 0 
0 0 0 0 0 0 0 0 0 
0 0 0 0 0 0 0 0 0 
0 0 0 0 0 0 0 0 0 
0 0 0 0 0 0 0 0 0 
0 0 0 
POINT_DATA 1644
SCALARS scalars float
LOOKUP_TABLE default
-0.418214 -0.261238 -0.3341 -0.47684 -0.128436 -0.484847 -0.598514 -0.0248443 -0.171561 
-0.498192 -0.388784 -0.732033 1.38778e-17 -1.38778e-17 -6.93889e-18 -0.283226 0 -0.785769 
-0.822732 -0.673084 -0.553586 -0.254649 -0.941395 0 0 3.46945e-18 0 
-0.0270174 -0.479149 -0.967153 -0.931357 -0.659877 -1.38778e-17 -0.17466 -0.980519 -1.1152 
-0.742088 -0.923925 -0.767951 -0.459812 -0.19571 -1.33098 -1.28492 3.46945e-18 0 
0 -0.44281 -1.16115 -1.29021 -1.16405 -0.788372 -1.38778e-17 -0.278635 -0.0813057 
0 -6.93889e-18 -1.20544 -1.12062 -1.32937 -1.27724 -1.029 -1.25432 -0.624612 
-0.934289 -0.318871 -0.0490045 1.38778e-17 -1.51783 -1.63527 -1.37782 -0.478895 -1.58168 
-1.46387 -1.09699 -0.916831 -1.35833 -0.699134 -0.176185 -0.0682376 -6.93889e-18 6.93889e-18 
-1.36524 -1.58059 -1.19857 -1.56086 -1.41484 -0.505699 -0.667119 -0.998975 -0.316794 
-0.171843 -6.93889e-18 0 0 -1.81555 -1.73364 -1.79751 -0.448872 -1.78762 
-1.69519 -1.57433 -0.876914 -1.39589 -1.22111 -1.36809 0 -0.107245 0 
-1.70002 -1.27927 -1.86596 -1.87135 -1.62818 -0.733432 -0.455315 -0.366456 -1.06527 
1.38778e-17 6.93889e-18 -0.0870453 -1.98629 -2.14025 -2.03629 -0.368212 -0.558968 -1.9742 
-1.85805 -1.75707 -0.749394 -1.06969 -1.79086 -1.41311 -1.4755 -1.63901 -0.20281 
0 -1.38778e-17 -1.37343 -2.03932 -2.08001 -2.14841 -1.92497 -2.17034 -1.63731 
-0.422149 -0.797179 -0.503414 -0.142117 -1.06308 -1.33147 0 6.93889e-18 -2.30399 
-2.29821 -2.28497 -2.26904 -0.532824 -0.603828 -2.32853 -2.19003 -1.97663 -0.910565 
-0.723211 -1.05436 -1.44156 -2.19161 -2.2038 -2.04775 -1.83403 -1.8024 -1.90113 
-0.407896 6.93889e-18 -0.0823266 -2.37573 -2.29562 -2.22565 -2.26743 -1.92327 -2.45851 
-1.68894 -2.50099 -1.37366 -0.145283 -0.184818 -1.05042 -0.740738 -0.431126 0 
0 0 -2.71281 -2.52716 -2.46207 -0.561803 -2.60774 -2.49698 -0.837626 
-1.20903 -1.11281 -1.7082 -1.35487 -2.41097 -2.57571 -2.29833 -2.13678 -1.97743 
-2.28914 -0.34528 0 -0.105104 0 -2.57405 -2.53318 -2.52864 -2.20636 
-1.91292 -1.62378 -2.68763 -2.63928 -1.33589 -1.06526 -6.93889e-18 0 -0.142124 
1.38778e-17 0 -0.861494 -0.704492 -0.455384 -0.156858 -3.11434 -3.10511 -2.84633 
-2.73915 -2.94305 -2.68687 -0.717681 -0.376384 -0.256365 -2.73691 -2.66078 -1.00811 
-1.48062 -1.28302 -1.59118 -1.95541 -1.72081 -2.62683 -2.67235 -2.36725 -2.4172 
-2.21313 -2.10948 6.93889e-18 -2.72097 -2.75247 -2.81988 -2.49292 -2.21128 -1.92606 
-1.60794 -1.29403 -1.00794 0 -2.77556e-17 -0.714417 -0.455037 -0.142352 0 
0 -3.15576 -3.41263 -3.29401 -3.0115 -3.41824 -3.13674 -2.85422 -3.05752 
-0.827242 -0.675747 -0.0751569 -0.143343 -0.560788 -0.489522 -3.46945e-18 -2.97274 -2.88487 
-1.00023 -1.45337 -1.2887 -1.12474 -1.70467 -1.93545 -1.43187 -2.75309 -2.65047 
-2.25762 -2.55771 -2.05389 -1.92431 -1.98916 -2.90755 -2.84131 -3.01462 -3.12846 
-3.15817 -2.80093 -2.49479 -2.1931 -1.89527 -1.58887 -1.28077 -0.972998 -0.409421 
-0.687828 0 -1.38778e-17 -0.138674 1.38778e-17 -3.45151 -3.25644 -3.49791 -3.60757 
-3.62538 -3.46426 -3.38198 -3.13778 -0.818646 6.93889e-18 -1.38778e-17 6.93889e-18 -6.93889e-18 
1.38778e-17 -0.402848 0 -0.0454814 -0.769816 -0.629493 -3.01793 -2.81276 -0.999407 
-1.23768 -0.933336 -0.909995 -0.783077 -1.61788 -1.45168 -1.70036 -1.19946 -1.21471 
-2.45621 -2.11121 -1.90968 -2.70198 -1.74408 -1.8316 -3.31751 -3.39998 -3.43423 
-3.12208 -2.81276 -2.51621 -2.21766 -1.87896 -1.63608 -1.44475 -1.30791 -1.04413 
-0.737764 -0.388124 1.38778e-17 -0.0798807 -1.38778e-17 -3.34419 -3.03537 -3.78563 -3.56157 
-3.46288 -3.58388 -3.80914 -0.767457 -0.669853 -0.245789 -0.379867 -6.93889e-18 0 
1.38778e-17 -6.93889e-18 -0.497747 -0.384552 -0.221056 -2.90308 -0.700704 -0.953203 -0.637178 
-0.67101 -0.436743 -1.41692 -1.20509 -1.1255 -0.97352 -2.35087 -2.49949 -1.99338 
-2.1108 -2.27405 -1.74525 -1.81153 -1.67873 -2.77935 -2.60649 -1.56035 -3.47212 
-3.1339 -2.86779 -2.7135 -2.52303 -2.2921 -1.97864 -1.66934 -1.3894 -1.15332 
-0.842538 -0.47214 -0.170122 0 0 -6.93889e-18 -3.44508 -3.26014 -2.96058 
-3.18158 -2.7563 -3.70342 -3.78727 -3.77519 -3.87968 -0.499893 -0.411508 -0.307836 
0 -0.0850357 -0.292321 -0.0654699 -0.105075 1.38778e-17 0 -0.46378 -0.714088 
-0.250354 -0.222664 -0.0429458 -1.21575 -1.08915 -0.941509 -0.76708 -0.558156 -2.49867 
-1.92141 -2.16697 -1.48487 -1.61661 -1.43535 -1.34871 -3.66293 -3.51357 -3.81452 
-3.20861 -2.88074 -2.55728 -2.6428 -2.35418 -2.05551 -1.78776 -1.54051 -1.26795 
-0.562704 -0.985693 0 0 -0.328885 -3.41439 -3.62497 -2.94517 -3.1858 
-2.70648 -3.73778 -4.01363 -3.84468 -0.14587 -0.0504842 -0.015354 -1.38778e-17 0 
0 -6.93889e-18 0 -6.93889e-18 -1.38778e-17 1.73472e-18 -0.252563 -0.0462028 1.38778e-17 
-6.93889e-18 0 0 -0.98598 -1.14127 -0.859815 -0.697139 -0.487632 -0.378698 
-0.136164 -2.40398 -2.52099 -1.86876 -1.81058 -2.14759 -1.27286 -1.47282 -1.65824 
-1.27569 -3.85273 -3.87009 -3.59484 -4.06893 -2.94106 -3.29517 -3.01002 -2.72031 
-2.44097 -2.18499 -1.91031 -1.65019 -1.38264 -0.75478 -1.17134 0 -0.190462 
-0.567595 -3.47556 -3.38307 -3.62928 -2.9375 -2.95568 -3.1777 -2.88591 -2.68653 
-3.95655 -3.83608 -1.38778e-17 0 -6.93889e-18 -1.73472e-18 1.73472e-18 -0.00046507 0 
5.42101e-20 0 -0.77156 -0.943693 -0.610879 -0.474639 -0.349967 -0.252429 -0.131793 
6.93889e-18 1.38778e-17 0 -2.4434 -1.81588 -1.94841 -2.16774 -1.11901 -1.50558 
-1.08292 -4.01168 -4.09237 -3.93827 -3.9306 -3.9007 -3.69164 -3.92757 -3.37407 
-3.12544 -2.86325 -2.58273 -2.29814 -2.0948 -1.90613 -1.59715 -0.954295 -1.32954 
-1.17793 0 -1.38778e-17 -0.477726 -0.235698 -0.833841 -3.37766 -3.57709 -2.74577 
-2.56909 -2.63843 -3.0412 -3.23195 -2.49415 -3.70736 -3.63286 0 0 
-0.576171 -0.78293 -0.423737 -0.244812 -0.0865125 3.46945e-18 0 6.93889e-18 0 
-2.20947 -1.85001 -1.89955 -1.86899 -1.5303 -1.34828 -1.00063 -0.685848 -4.04963 
-3.81733 -3.83976 -3.58692 -3.77097 -3.86815 -3.61395 -3.50373 -3.48695 -3.28941 
-3.15214 -3.0706 -2.75593 -2.45793 -2.28225 -2.15521 -1.98718 -1.8509 -1.71088 
-1.5275 -1.45479 -1.05467 1.38778e-17 -0.650912 -0.351814 -0.0866547 -3.44487 -2.28171 
-2.83897 -2.39537 -2.23423 -2.34668 -3.05898 -3.32506 -3.51036 -0.394118 -0.0232087 
6.93889e-18 -3.46945e-18 -1.84743 -1.94669 -1.75128 -1.78325 -1.51227 -1.52697 -1.51604 
-1.45861 -1.33723 -1.00331 -0.683437 -3.68323 -3.80912 -3.69183 -3.61432 -3.47578 
-3.24071 -3.32488 -3.41945 -3.44792 -3.17753 -3.24617 -3.03868 -3.0511 -2.89856 
-2.64303 -2.41854 -2.23302 -2.05923 -1.84578 -1.2818 -1.52867 -0.77298 -1.09555 
6.93889e-18 -0.450099 -0.0861966 -0.179025 0 0 -2.13752 -2.81187 -2.59069 
-2.42814 -2.15392 -2.11552 -1.94471 -2.01401 -3.10261 -3.25034 -3.57198 -0.350059 
-0.0613747 0 0 -1.54067 -1.84084 -1.21008 -1.17564 -1.23588 -1.20286 
-1.12427 -1.01722 -0.956641 -0.707194 -3.39623 -3.30523 -3.16925 -2.98099 -2.90366 
-2.91362 -3.17394 -3.16158 -2.84245 -2.80999 -2.8976 -2.90071 -2.71322 -3.08486 
-2.89139 -2.60343 -2.4994 -2.38037 -2.22883 -1.69651 -1.91223 -1.16713 -1.54144 
-0.879508 -0.494748 6.93889e-18 0 0 6.93889e-18 -0.177064 1.38778e-17 -2.90492 
-2.61886 -2.3418 -2.40904 -2.10001 -1.86571 -1.7353 -3.29518 -2.96169 -0.51023 
-0.325362 -0.121799 0 -6.93889e-18 1.38778e-17 -1.63179 -1.30507 -1.08827 -1.05922 
-1.07005 -0.868279 -0.835621 -0.943875 -0.894415 -0.807436 -0.745391 -0.695648 -0.645746 
-3.08525 -2.86998 -2.96631 -2.84836 -2.6506 -2.75034 -2.60341 -2.677 -2.56539 
-2.85252 -2.52818 -2.50471 -2.7291 -2.5965 -2.85756 -2.36664 -2.42341 -2.55572 