# vtk DataFile Version 4.2
3D Slicer output. SPACE=LPS
ASCII
DATASET POLYDATA
POINTS 1630 float
6.80142 36.6752 -26.7992 7.20059 36.6458 -26.1358 7.20059 36.276 -26.4293 
6.80142 37.4735 -26.1358 6.4903 36.8748 -27.1396 7.20059 35.8709 -26.6407 
6.8836 35.8709 -27.1396 6.46094 36.4756 -27.3392 7.42953 36.0705 -26.1358 
7.20059 37.2739 -25.5018 7.40018 36.7691 -25.5371 6.27897 38.0723 -26.3354 
6.80142 37.8727 -25.6662 6.19678 37.5557 -26.94 6.20852 36.6752 -27.5388 
7.59977 35.2722 -26.1945 7.06558 35.2722 -27.1396 6.76033 35.2722 -27.5388 
6.60183 36.0705 -27.4273 7.86393 35.2722 -25.5371 7.66434 36.4756 -25.1379 
7.20059 37.8727 -24.6213 7.4941 37.0743 -24.9383 7.59977 36.6752 -25.0263 
5.59802 38.536 -26.7405 6.00894 39.0761 -25.5371 6.39637 38.6652 -25.3375 
6.80142 38.2719 -25.1379 5.79761 37.315 -27.5388 5.59802 37.8316 -27.3392 
5.39843 37.1037 -27.938 5.79761 36.6752 -27.9204 6.21439 35.8709 -27.938 
7.59977 34.8378 -26.3354 7.84632 34.873 -25.7366 7.40605 34.6734 -26.7405 
7.00101 34.6734 -27.3862 6.22026 35.2722 -28.1376 6.60183 35.0726 -27.8206 
7.99894 34.5149 -25.3375 7.99894 35.0726 -25.1085 7.84045 36.276 -24.7387 
8.0283 35.6714 -24.5391 6.80142 38.3188 -24.9383 7.40018 37.6027 -24.5391 
6.86599 38.671 -24.3395 7.40018 37.6614 -24.3395 7.20059 38.3775 -23.9403 
7.8698 36.4756 -24.3395 7.51759 37.4735 -24.3395 5.39843 39.0761 -26.3354 
5.39843 38.5243 -26.94 5.59802 39.4342 -25.5371 6.20852 39.0761 -25.1379 
5.39843 37.7788 -27.5388 5.76826 36.276 -28.1376 4.84663 37.6731 -27.938 
5.16949 37.0743 -28.1376 5.9972 35.8709 -28.0906 7.49997 33.8751 -26.535 
7.7113 34.2742 -26.1358 7.20059 33.8751 -27.1161 6.39637 34.6734 -28.0847 
6.60183 34.2742 -27.9204 6.80142 34.0747 -27.709 6.24962 34.873 -28.1376 
5.64498 35.4718 -28.5367 5.79761 34.6734 -28.6189 7.88154 33.8751 -25.7366 
7.99894 33.9749 -25.3375 8.2044 34.0747 -24.1399 8.18092 34.6734 -24.3395 
8.19266 35.0726 -24.1399 8.09287 35.6714 -24.1399 6.48442 39.2757 -24.1399 
7.00101 38.8413 -23.7349 7.69956 37.4735 -23.7349 7.40018 38.0194 -23.9403 
7.48823 37.8727 -23.9403 7.40018 38.0723 -23.8288 7.74065 38.0723 -22.737 
8.09287 36.276 -23.5353 8.08113 36.0705 -23.9403 8.05178 36.6752 -23.3357 
7.8698 36.8748 -23.9403 4.34766 39.4753 -26.7405 4.55899 39.6749 -26.3354 
4.99926 39.0702 -26.7405 5.08731 39.8744 -25.5371 4.70575 39.0761 -26.94 
4.99926 38.1486 -27.5388 5.39843 39.8568 -25.1379 6.26723 39.4753 -24.3395 
5.39843 36.276 -28.3783 4.59421 38.0723 -27.7384 4.4181 37.6731 -28.1376 
4.40049 37.1272 -28.5367 4.60008 36.6752 -28.6952 7.59977 33.6226 -26.3354 
7.20059 33.2763 -27.0105 6.60183 33.4759 -27.891 6.86012 33.2763 -27.5388 
6.44333 33.8751 -28.1376 5.79761 34.0747 -28.7187 5.50997 35.0726 -28.7363 
4.60008 35.6714 -29.159 4.99926 36.0705 -28.7774 5.39843 34.2742 -28.9946 
4.99926 34.6734 -29.2001 7.48236 32.8713 -26.3354 7.88741 33.0708 -25.3375 
8.06352 33.6755 -24.9383 8.09874 33.2763 -24.3395 8.19853 33.6755 -23.7349 
8.25136 34.0747 -23.3357 8.23375 34.873 -23.9403 8.19853 35.8709 -23.506 
6.20265 39.6749 -23.9403 7.00101 39.0761 -23.2183 7.32974 38.671 -22.9365 
7.88741 37.4735 -23.1361 7.41192 38.671 -22.737 7.59977 38.7356 -22.1382 
7.88741 38.0723 -22.3378 7.99894 37.4735 -22.8544 8.27485 35.6714 -23.1361 
8.29246 36.276 -22.737 8.12809 36.8748 -22.9365 3.80173 40.1503 -26.1358 
3.39668 39.8744 -26.6465 4.2009 40.074 -26.0419 3.60214 39.3285 -27.1396 
3.39668 39.6161 -26.94 4.40049 39.0233 -27.1396 4.60595 40.2736 -25.3375 
4.40049 38.671 -27.4097 4.60008 38.401 -27.5388 5.48649 40.074 -24.5391 
5.83283 39.8744 -24.3395 4.01893 38.2719 -27.938 3.60214 38.0253 -28.3372 
3.80173 37.4735 -28.6248 4.2009 37.2739 -28.5074 3.72542 37.0743 -28.9359 
4.2009 36.4756 -29.0298 7.00101 32.4721 -27.0751 6.21439 33.0708 -28.3372 
6.60183 33.0708 -27.8734 6.80142 32.6717 -27.486 5.59802 32.4721 -28.8713 
5.39843 33.0708 -29.0592 4.99926 33.4759 -29.3703 4.79967 35.2722 -29.1707 
4.00132 34.8554 -29.7401 4.00132 35.8709 -29.3997 4.79967 33.8751 -29.4995 
4.79967 34.2742 -29.3879 4.40049 34.6734 -29.5758 7.26517 32.4721 -26.535 
7.67021 32.6717 -25.7366 7.76413 32.2725 -24.9383 8.05765 33.0708 -24.5391 
8.06352 32.8713 -23.9403 8.10461 33.0708 -23.5353 8.29246 34.4738 -23.3357 
8.15157 33.2763 -22.9365 8.28658 34.4738 -22.737 8.3042 35.2722 -23.1361 
5.9561 40.074 -23.3357 6.56074 39.4753 -23.3357 7.11841 39.0761 -22.737 
7.30276 39.109 -22.0044 7.34473 39.0574 -21.9755 7.10667 39.2757 -22.3378 
7.36916 39.0396 -21.96 7.79936 38.5654 -21.739 7.57178 38.8161 -21.7814 
8.06939 38.0723 -21.739 8.04004 37.6731 -22.3378 8.19853 37.2739 -22.1793 
8.35116 34.873 -22.5374 8.43921 35.8709 -21.9386 8.37464 35.2722 -22.3378 
8.29246 36.6752 -22.3378 3.1971 40.1386 -26.3354 2.79792 40.4732 -26.0478 
3.80173 40.4145 -25.7366 2.79792 39.6749 -26.9635 4.06808 40.4498 -25.4703 
4.2009 40.4266 -25.4105 3.60214 38.7356 -27.7384 2.79792 39.2757 -27.3568 
4.29695 40.4214 -25.3375 4.66107 40.4178 -24.905 4.78458 40.4224 -24.7133 
5.19884 40.438 -23.9403 3.60214 38.448 -27.938 3.1971 38.0723 -28.4076 
3.1971 37.4735 -28.8068 3.1971 36.8748 -29.1825 3.60214 36.6752 -29.1942 
6.60183 31.8733 -27.5036 7.20059 32.0729 -26.4411 6.60183 32.2725 -27.6445 
6.25549 32.2725 -28.1376 5.79761 32.0729 -28.6189 5.16949 31.6737 -29.1355 
5.26342 32.2725 -29.1355 4.79967 33.0708 -29.5934 4.2009 33.4759 -29.9808 
3.60214 35.6714 -29.611 3.60214 34.873 -29.8928 3.60214 34.2977 -30.1393 
3.1971 36.4756 -29.3527 3.1971 36.0705 -29.5582 4.00132 33.6755 -30.0747 
7.32387 32.0729 -26.1358 7.5352 32.0729 -25.5371 7.62912 31.8733 -24.9383 
7.85219 32.2725 -24.3395 7.89328 32.2725 -23.7349 8.087 33.0708 -22.737 
8.12222 33.4759 -22.3378 8.19853 33.8751 -21.9386 5.75652 40.2736 -23.1361 
6.09136 40.074 -22.8102 5.78525 40.2595 -23.0936 6.23063 39.9704 -22.6755 
6.60183 39.7336 -22.5374 7.16815 39.2603 -22.0765 6.58242 39.7547 -22.4474 
6.92106 39.451 -22.2209 7.71562 38.6691 -21.6712 7.8944 38.4495 -21.5026 
8.19853 37.6203 -21.9386 8.2044 37.8727 -21.3398 8.04927 38.2091 -21.3286 
8.39812 36.8748 -21.739 8.31007 34.4738 -21.9386 8.39812 35.1489 -21.739 
8.43334 35.4718 -21.739 8.40399 36.4756 -21.9386 8.50378 35.6714 -21.1403 
2.79792 40.2677 -26.3354 2.73922 40.074 -26.535 1.99957 40.6728 -25.9538 
2.59833 40.7256 -25.7366 3.81181 40.4779 -25.5897 2.74139 40.8098 -25.5221 
3.60702 40.5467 -25.5917 3.73391 40.503 -25.603 2.19916 39.8744 -26.7698 
1.99957 39.3285 -27.3392 2.99751 38.671 -27.9086 2.39875 38.671 -27.9556 
2.39875 39.0702 -27.5388 5.13359 40.4424 -24.0412 5.18 40.4441 -23.9498 
5.19009 40.4442 -23.9313 2.99751 38.3834 -28.1376 2.59833 37.8727 -28.6013 
2.19916 37.2739 -29.0005 2.19916 36.4756 -29.4642 6.12047 31.8733 -28.1376 
6.39637 31.4389 -27.5388 6.80142 31.4741 -26.8109 7.22994 31.8733 -26.1358 
6.15569 31.4741 -27.938 5.39843 31.2746 -28.7892 4.93468 31.4741 -29.3351 
5.19884 31.1748 -28.9359 4.40049 32.6717 -29.9984 4.60008 31.8733 -29.7695 
4.2009 32.8713 -30.0924 3.60214 33.2763 -30.5385 3.80173 32.8126 -30.5385 
2.39875 35.8709 -29.8341 2.99751 35.3778 -29.9397 2.99751 34.6734 -30.2919 
2.59833 34.2742 -30.8261 2.99751 33.9514 -30.7381 3.51409 33.8751 -30.3389 
2.23438 36.0705 -29.7401 7.40018 31.8733 -25.766 7.40018 31.5152 -25.3375 
7.27691 31.075 -24.9383 7.59977 31.6385 -24.3395 7.66434 31.6737 -23.7349 
7.79936 32.0729 -23.3357 7.75239 32.0729 -22.9365 7.92263 32.6717 -22.5374 
8.08113 33.6755 -21.3398 8.22201 34.0747 -21.5394 5.72263 40.2873 -23.1629 
5.75127 40.2777 -23.1229 5.76377 40.2704 -23.1121 6.45417 39.8477 -22.5374 
8.39812 37.2739 -21.2401 8.11719 38.0845 -21.2339 8.20957 37.8727 -21.0737 
8.51552 36.276 -21.3398 8.55662 36.4756 -20.9348 8.49204 36.8748 -21.1403 
8.29246 34.4738 -21.3398 8.38638 34.873 -21.3398 8.45682 35.2722 -20.9348 
8.55662 36.0705 -20.336 2.39875 40.1327 -26.535 1.99957 40.3147 -26.3354 
1.79998 40.4732 -26.1358 1.40081 41.2716 -25.3727 2.19916 40.8606 -25.7366 
2.39875 40.937 -25.5371 2.50293 40.941 -25.4676 1.20122 40.074 -26.4704 
1.40081 39.6044 -26.94 2.19916 38.7121 -27.938 1.40081 39.0761 -27.4508 
1.99957 38.4715 -28.0789 2.19916 37.8727 -28.5837 1.60039 37.4735 -28.7716 
1.60039 37.0743 -29.0416 1.99957 37.6731 -28.6659 1.79998 36.4756 -29.4525 
6.07938 30.6758 -27.5388 6.4903 30.8754 -26.94 7.00101 31.4741 -26.3706 
7.20059 31.2746 -25.6251 5.19884 30.4762 -28.66 4.60008 31.1689 -29.7401 
4.79967 30.7638 -29.3351 4.29483 32.2725 -30.1393 4.5179 31.4741 -29.9397 
4.00132 32.0729 -30.5913 3.60214 32.9769 -30.7381 3.35559 33.4759 -30.7381 
3.80173 32.2725 -30.8144 2.19916 35.4718 -30.1687 2.7627 34.873 -30.3389 
2.19916 35.2487 -30.3389 2.5455 34.6734 -30.5385 1.79998 35.1606 -30.5385 
1.99957 34.2742 -31.2253 2.39875 34.0277 -31.1373 2.59833 33.4231 -31.5364 
3.12665 33.4759 -30.9377 1.40081 36.276 -29.6169 1.99957 35.6714 -30.0571 
7.08906 30.8754 -25.3375 7.20059 30.8402 -24.3395 7.45888 31.2746 -24.3395 
7.40018 31.1278 -23.5353 7.62912 31.6737 -23.1361 7.50584 31.4741 -22.9365 
7.59977 32.0377 -22.1382 7.79936 32.6717 -21.8212 7.75827 32.8713 -21.1403 
7.59977 32.8478 -20.5356 8.05765 33.8751 -20.7352 7.79936 33.2763 -20.5356 
8.46269 37.2739 -20.7352 8.28014 37.6621 -20.9127 8.56836 36.4756 -20.1364 
8.28658 34.4738 -20.9348 8.32768 34.873 -20.1364 8.44508 35.4718 -19.9369 
8.51552 36.0705 -19.7373 1.00163 40.9604 -25.5371 1.00163 41.2716 -25.2377 
1.99957 41.2363 -25.3375 1.20122 41.6707 -25.0263 1.55158 41.4933 -25.1953 
1.24555 41.6994 -25.0068 1.40081 41.6038 -25.0995 2.42573 40.968 -25.4453 
2.05468 41.2188 -25.3162 0.596584 40.1797 -26.1358 0.802043 40.4732 -25.9715 
0.948798 39.4753 -26.94 1.11903 39.0761 -27.3392 1.40081 38.5067 -27.938 
0.819653 38.671 -27.5388 1.60039 37.8727 -28.4839 1.20122 37.2739 -28.8244 
1.20122 37.6555 -28.5367 1.20122 36.6223 -29.3351 1.40081 36.4756 -29.4877 
5.75652 30.0712 -27.5388 5.97371 30.0712 -27.1396 6.80142 30.8225 -26.1358 
6.39637 30.2707 -26.3354 6.22026 30.0712 -26.535 7.00101 30.9752 -25.7366 
[...]
POINT_DATA 1630
SCALARS scalars float
LOOKUP_TABLE default
-4.68246 -4.69606 -5.07852 -3.82945 -4.51649 -5.47423 -5.4972 -4.90578 -5.15889 
-3.9608 -4.27173 -3.16269 -3.38509 -3.76913 -4.73655 -5.66719 -6.07428 -6.09595 
-5.32784 -5.13339 -4.1068 -2.89783 -3.60526 -3.90159 -2.67546 -1.98832 -2.45951 
-2.94057 -4.08541 -3.5149 -4.33901 -4.78239 -5.5727 -6.04048 -5.53463 -6.47174 
-6.64258 -6.16095 -6.31795 -5.22931 -4.91178 -3.89548 -4.09458 -2.84287 -2.98153 
-2.19815 -2.78165 -2.0555 -3.45495 -2.88645 -1.988 -2.71011 -1.48459 -1.9909 
-3.59835 -5.20401 -3.77301 -4.41911 -5.57569 -6.00979 -5.80793 -6.53862 -6.69891 
-7.04205 -7.15979 -6.50628 -6.02987 -6.77431 -5.31087 -5.00206 -4.02488 -4.48037 
-4.14854 -3.77799 -1.60224 -1.62307 -2.38604 -2.25379 -2.33506 -2.13126 -1.22533 
-2.92953 -3.3759 -2.52879 -2.89793 -1.59399 -1.23496 -2.05706 -0.882304 -2.08791 
-3.20847 -0.930027 -1.47606 -5.23512 -3.30144 -3.83217 -4.49792 -4.96464 -5.7477 
-6.2567 -7.14915 -6.75442 -7.42729 -7.33385 -6.43226 -6.0325 -5.54474 -7.21332 
-6.91844 -5.52637 -4.68183 -4.53872 -3.86251 -3.49964 -3.36096 -4.11897 -3.15458 
-1.10074 -1.06433 -1.05556 -1.8961 -0.890054 -0.358929 -0.90005 -1.66857 -2.99004 
-2.29939 -2.09001 -0.631857 -1.22515 -0.667994 -1.9284 -1.6119 -2.18923 -0.248458 
-2.61997 -2.93403 -0.655612 -0.944572 -3.23023 -3.68601 -4.27282 -4.35219 -4.77563 
-5.29412 -6.12563 -7.2498 -7.02556 -6.55947 -6.39033 -6.85756 -7.10857 -6.38303 
-6.99557 -5.9851 -7.44379 -7.32892 -7.06488 -5.6153 -4.92894 -4.10056 -3.97161 
-3.36421 -3.06969 -3.58309 -2.63519 -3.12233 -3.24309 -0.356055 -0.88337 -0.662532 
-1.38778e-17 -2.08167e-17 -0.21825 2.08167e-17 -0.125195 0 -0.418093 -1.13331 -1.24617 
-3.04607 -1.93712 -2.63214 -1.73861 -0.857559 -0.562767 -0.15485 -1.71262 -6.93889e-18 
-4.16334e-17 -2.76703 -2.24919 0 -1.38778e-17 1.38778e-17 -0.0138168 -3.10656 -3.73508 
-4.43193 -5.11744 -5.24519 -6.44195 -5.45284 -6.63818 -6.60441 -6.14338 -5.46915 
-6.05884 -6.66271 -6.94682 -6.27446 -7.07495 -7.68291 -5.52281 -5.95978 -7.12161 
-5.16581 -4.609 -4.01966 -3.54763 -2.98747 -2.36303 -2.21634 -2.15451 -0.0141148 
-1.38778e-17 0 0 -0.0932638 -1.38778e-17 1.38778e-17 2.77556e-17 0 1.38778e-17 
-0.848238 -0.216852 0 -1.14649 -2.56671 -2.26753 -2.04848 -1.55168 -1.46861 
-0.896043 -1.17437 -0.723337 -0.270738 -1.38778e-17 2.77556e-17 0 2.77556e-17 -1.65542 
-2.45777 -3.00105 -3.17075 -2.61973 1.73472e-18 0 0 -3.3571 -4.10534 
-4.88049 -5.75277 -6.19821 -6.11227 -5.72439 -5.13016 -5.9226 -5.23657 -5.18598 
-5.04369 -6.19342 -5.45664 -6.35765 -6.73007 -6.28957 -6.39532 -6.74903 -7.51393 
-7.71181 -7.41035 -7.29737 -6.21969 -4.78842 -4.33891 -3.91783 -3.41326 -2.85134 
-2.55284 -2.16546 -1.99639 -1.57487 -2.01335 0 0 -1.73472e-18 -6.93889e-18 
-0.508445 0 2.77556e-17 -1.21737 -0.780085 -0.682269 -2.18264 -2.17287 -1.60126 
-0.611229 -1.2619 -1.18455 -1.05245 -0.341354 -0.378485 -0.102112 0 -1.79713 
-2.27892 -3.19136 -2.93285 -3.5061 -4.18853 -4.76344 -5.21297 -4.43387 -5.84237 
-5.33638 -5.80895 -5.30362 -4.58082 -4.46391 -4.78167 -4.47629 -5.79157 -5.05711 
-5.59789 -6.46274 -6.94222 -5.80411 -6.94384 -7.41484 -7.21873 -7.72167 -7.46525 
-7.03735 -7.3653 -7.06329 -6.97063 -6.20374 -6.76631 -4.28236 -3.32943 -3.37045 
-2.58632 -2.27284 -2.04006 -1.37148 -1.33039 -0.849348 -0.344435 -1.32466 -0.699747 
-0.117476 0 -0.186166 -1.94992 -1.3807 -0.787847 -0.206642 -0.852404 -0.523032 
-0.0408626 -0.0575416 -1.38778e-17 -6.93889e-18 2.77556e-17 0 6.93889e-18 -1.87716 -1.48928 
-2.57751 -2.98986 -3.60932 -3.51222 -4.30625 -5.07218 -4.6317 -5.84515 -5.98064 
-4.68546 -4.92159 -5.03457 -5.08007 -5.04459 -4.66095 -3.98278 -4.22033 -3.76939 
-4.09179 -4.63728 -4.83458 -5.61777 -5.22926 -6.29078 -6.56402 -5.91393 -7.16048 
-7.18006 -7.25464 -6.2798 -6.57973 -6.54405 -6.7021 -6.61561 -6.5347 -6.44132 
-6.57282 -7.12055 -4.07914 -3.51698 -3.13722 -2.56359 -2.9599 -1.97118 -1.59036 
-0.999499 -0.578669 -0.0979147 -0.293605 -1.39061 -0.7973 -1.38778e-17 0 1.38778e-17 
0 0 -1.54496 -1.30764 -0.242086 -0.437791 0 -0.0843676 -1.11526 
-0.40744 0 0 0 -6.93889e-18 -2.77556e-17 -2.73724 -2.35872 -2.91434 
-2.09637 -3.30152 -4.12598 -3.93756 -4.20412 -4.6356 -5.70547 -5.48892 -5.76242 
-4.33561 -4.68112 -4.74409 -4.43599 -4.25344 -4.44836 -3.43737 -3.17259 -3.93943 
-3.36953 -4.25179 -3.8803 -4.11488 -4.70945 -5.51624 -6.22528 -5.8576 -6.79047 
-6.42055 -6.05942 -5.75471 -5.8513 -5.72799 -6.08516 -6.75679 -6.35856 -6.13871 
-6.7553 -6.23142 -6.82246 -6.05424 -3.33588 -2.966 -2.1904 -1.77238 -1.25805 
-0.663138 -0.128223 0 0 2.77556e-17 1.38778e-17 -0.0918328 -0.372015 -0.892556 
-0.799383 -0.158531 -0.371986 0 -1.38778e-17 -1.98174 -0.924496 -0.597805 -0.102857 
0 -3.3597 -2.72838 -3.81892 -2.65403 -2.08812 -4.54527 -4.57902 -6.67769 
-6.59866 -5.58394 -3.94197 -3.68111 -4.26127 -3.81768 -3.93622 -2.92505 -2.55416 
-2.6745 -3.09272 -3.08717 -2.75072 -3.74567 -3.09666 -4.22341 -4.9526 -5.19221 
-5.3055 -5.88758 -5.78116 -5.18569 -4.61036 -5.72694 -5.00464 -6.25014 -5.46544 
-5.2463 -5.27849 -6.72932 -6.33195 -6.08279 -5.31031 -5.31232 -5.76396 -3.39632 
-2.67769 -2.37394 -1.78161 -1.6106 -0.903772 -0.466178 2.77556e-17 0 0 
0 0 -6.93889e-18 1.38778e-17 -0.170732 -0.196329 -0.684368 -0.458601 0 
0 2.77556e-17 -0.441875 0 0 -1.27822 -0.671319 -5.55112e-17 0 
0 1.38778e-17 -3.88913 -3.56431 -4.26964 -5.11651 -2.70065 -2.10861 -1.63186 
-5.06732 -6.62734 -6.43871 -6.31701 -6.89688 -6.31701 -5.30238 -5.56703 -5.80834 
-6.18026 -3.73963 -3.40165 -3.20431 -2.30104 -1.96093 -1.76781 -1.62878 -2.59561 
-3.12513 -2.64289 -2.08483 -3.23359 -3.7748 -4.60304 -5.52755 -5.35412 -4.92799 
-4.65256 -4.38151 -4.06336 -4.15518 -4.63156 -4.84987 -5.40961 -4.64989 -5.26708 
-4.43307 -4.42233 -4.92236 -4.53469 -4.91022 -4.88762 -6.40664 -5.45907 -6.01693 
-4.78739 -4.42911 -4.47463 -4.16653 -3.08324 -2.57374 -2.30616 -2.07457 -1.84193 
-1.77667 -1.30799 -0.999257 -0.457028 3.46945e-18 5.55112e-17 1.38778e-17 1.38778e-17 0 
0 1.38778e-17 1.38778e-17 -0.296334 -0.160068 -0.128632 -2.77556e-17 -1.10526 -0.654447 
-0.359723 -0.271565 -2.77556e-17 2.77556e-17 -4.31171 -3.80676 -3.59623 -5.87698 -5.31412 
-2.37564 -1.87425 -1.98415 -5.83237 -5.7831 -5.95739 -6.34857 -6.64715 -6.62738 
-5.51187 -5.57082 -6.30984 -2.9619 -2.68963 -1.66072 -1.38716 -1.53397 -1.27973 
-1.79768 -1.42153 -2.30413 -2.72752 -2.29067 -2.29049 -2.64551 -2.36443 -2.94638 
-3.68362 -4.59781 -4.95171 -3.65831 -3.68387 -4.28707 -3.39522 -3.88568 -4.12437 
-4.93112 -4.02728 -4.59339 -3.93438 -3.88332 -3.56172 -4.32874 -4.15332 -4.02691 
-4.17517 -4.96068 -5.17146 -4.65426 -3.99055 -3.96665 -4.11157 -3.4281 -3.16466 
-2.46436 -2.11557 -1.9003 -1.63707 -1.53211 -1.27105 -0.88771 -0.683849 -0.439748 
2.08167e-17 3.46945e-18 -1.38778e-17 0 0 -6.93889e-18 6.93889e-18 0 -0.935085 
-0.252137 0 0 2.77556e-17 0 0 -4.65513 -4.34024 -5.2666 
-3.93499 -3.10029 -6.19539 -2.71321 -1.5439 -1.75557 -5.19602 -5.67019 -5.50775 
-6.08815 -6.40756 -6.52334 -1.91542 -1.34655 -2.03288 -0.667147 -1.01227 -0.778718 
-0.926195 -1.79836 -1.43436 -1.09336 -0.803737 -2.15323 -2.52639 -3.62434 -3.11726 
-3.40448 -4.6216 -4.33385 -3.22535 -2.5879 -2.98501 -3.09037 -3.27358 -2.91876 
-2.8989 -4.20173 -3.5056 -4.20513 -3.22998 -2.74395 -2.9655 -2.36178 -2.69754 
-3.40745 -3.66357 -3.36318 -2.96901 -4.06543 -3.75224 -4.78064 -5.02547 -4.4192 
-4.70664 -3.63772 -3.40759 -3.3665 -4.12189 -2.57796 -2.95293 -1.76172 -1.82862 
-1.41838 -1.0606 -1.09899 -1.11863 -0.833033 -0.555226 -0.638835 -0.68153 -0.66954 
6.93889e-18 -0.833097 -0.285987 -2.77556e-17 -5.45915 -5.04132 -4.20237 -6.03842 -3.64545 
-3.03782 -2.24313 -1.67908 -1.08195 -4.72037 -5.33812 -4.76818 -4.54717 -5.18858 
-6.12035 -5.93722 -1.27615 -0.343001 -1.4606 -0.91298 -1.9103 -0.269515 -0.549806 
-0.198454 -0.236209 -1.17557 -1.02116 -0.787551 -0.466226 -1.77336 -2.82582 -4.15309 
-3.09771 -3.35259 -3.60884 -2.43385 -1.99854 -2.00508 -2.21119 -2.46877 -3.42213 
-2.8359 -2.62245 -2.82361 -1.9239 -2.26541 -1.83684 -2.50841 -2.19623 -1.9371 
-2.72663 -2.642 -3.14224 -3.19901 -3.0976 -2.38403 -2.61744 -1.92199 -3.79984 
-3.34464 -2.94888 -2.95946 -2.65164 -3.20845 -3.65476 -3.80999 -4.3663 -2.17881 
-1.87407 -2.3617 -2.41116 -2.12467 -1.35634 -1.10337 -0.807176 -0.176853 -0.608898 
-0.372957 -0.0317413 -4.16334e-17 4.16334e-17 2.77556e-17 -0.720166 -0.222159 0 -2.77556e-17 
0 2.77556e-17 -5.20513 -5.50833 -4.89326 -4.15008 -2.868 -1.77719 -0.955762 
-4.22962 -4.82746 -4.23097 -4.92146 -4.79824 -5.07818 -5.61031 -4.84637 -5.78947 
-5.52853 -4.94937 -1.0321 -0.915974 -0.991387 -0.0854121 -0.0279326 -0.332646 -0.990002 
-0.566965 1.38778e-17 0 -1.38778e-17 6.93889e-18 -1.38778e-17 2.77556e-17 -0.975114 -0.606827 
-0.223267 -2.77556e-17 1.38778e-17 0 -2.29155 -1.87031 -1.44116 -2.70402 -3.16551 
-2.83963 -3.10315 -1.53324 -1.3656 -1.74812 -1.63534 -1.72124 -1.8346 -1.77802 
-2.32611 -1.99338 -2.25021 -1.51602 -1.30408 -1.78551 -0.928128 -1.19438 -1.39222 
-2.11328 -2.51042 -2.54249 -1.78829 -1.57572 -2.19016 -1.79488 -0.968813 -1.18325 
-0.90679 -2.3928 -2.03928 -2.41415 -1.84521 -2.91033 -3.19222 -3.79611 -1.38539 
-1.06609 -1.57628 -1.85794 -0.54587 1.38778e-17 -1.38778e-17 0 -0.178089 -2.77556e-17 
3.46945e-18 -3.46945e-18 0 0 2.77556e-17 -5.55112e-17 -0.176535 0 0 
0 -5.22097 -4.64596 -4.49848 -4.05176 -4.4938 -4.02519 -3.45923 -2.45556 
-2.04143 -1.32865 -0.767189 -0.0518156 -3.81587 -4.46946 -4.612 -4.23875 -4.09402 
-4.50193 -4.6452 -5.1039 -4.49273 -0.50481 -0.15318 -0.262984 3.46945e-18 0 
-0.120318 -3.46945e-18 0 0 -0.307509 -1.43064 -0.575977 -0.182416 0 
-1.38778e-17 -2.16067 -1.99896 -2.59515 -2.55586 -2.20603 -2.08306 -2.05428 -1.12039 
-0.831285 -0.866498 -1.11441 -1.13286 -1.19617 -1.04363 -0.994957 -1.53941 -1.87394 
-1.53848 -2.07827 -0.563987 -0.372812 -0.861054 -1.32992 -0.375888 -0.480042 -0.601214 
-1.66724 -1.65176 -1.37576 -0.939339 -1.29766 -0.662492 -0.783661 -1.21672 -2.77556e-17 
0 -1.40546 -2.60251 -2.23355 -1.77656 -1.23855 -2.90144 -3.01376 -0.871354 
-0.629406 -0.876749 -2.77556e-17 0 2.77556e-17 -1.38778e-17 0 2.77556e-17 -4.02562 
-3.58191 -3.80146 -4.1534 -3.94621 -3.02809 -3.56879 -2.38263 -1.75862 -1.34133 
-0.914478 -0.251182 6.93889e-18 0 -3.55472 -3.25116 -3.75283 -4.18809 -3.67754 
-3.76686 -3.47431 -4.3644 -4.00991 -3.76259 -3.59552 0 -2.77556e-17 -1.38778e-17 
0 -1.38778e-17 2.60209e-18 -6.93889e-18 0 0 0 0 0 
0 -0.887456 -1.15506 -1.72148 0 -1.38778e-17 -1.93843 -1.69462 -2.01039 
-1.59662 -1.80295 -1.34802 -0.19817 -0.0501467 -0.402689 -0.695132 -0.767044 -0.50888 
-0.339033 -0.546996 -0.479515 -1.20934 -1.62802 -0.160014 -0.25715 -0.158691 -0.369924 
-0.09782 -0.256654 -0.862466 -0.158354 -0.117134 0 0 -0.45552 -0.699164 
-0.0603856 -0.616276 -0.571996 -2.77556e-17 -6.93889e-18 -0.163028 -2.77556e-17 -1.11873 -0.71109 
-2.63866 -1.95541 -1.58582 -1.33671 -0.881284 -0.717643 -0.540713 -0.152955 -0.418253 
-3.10439 -3.31844 -3.43425 -2.64765 -2.98967 -1.98228 -1.72022 -1.02863 -0.158949 
-6.93889e-18 -3.12108 -3.2508 -3.03839 -2.53235 -2.98409 -3.74583 -2.8652 -3.15527 
-2.24374 -3.48595 1.38778e-17 2.77556e-17 -0.0132529 -1.03445 -1.34788 -1.08932 -1.31717 
-1.21254 -1.58239 -1.09643 -1.16088 -1.47041 -1.31313 3.46945e-18 6.93889e-18 1.38778e-17 
-6.93889e-18 2.77556e-17 3.46945e-18 2.08167e-17 -0.41001 -0.284447 -0.355989 -2.77556e-17 2.77556e-17 
-1.38778e-17 2.77556e-17 0 1.38778e-17 -1.38778e-17 6.93889e-18 -0.708755 -1.16145 -1.03159 
0 6.93889e-18 -0.108059 6.93889e-18 -2.08167e-17 -6.93889e-18 1.38778e-17 -0.0596809 0 
0 0 -1.38778e-17 1.38778e-17 0 -6.93889e-18 1.38778e-17 1.38778e-17 1.38778e-17 
-1.38778e-17 -2.77556e-17 -0.26517 6.93889e-18 -1.9082e-17 1.38778e-17 3.46945e-18 0 6.93889e-18 
-0.24458 -0.0677897 -1.73472e-18 -0.201439 -0.682762 -0.980814 6.93889e-18 -1.38778e-17 -0.558329 
-0.169884 -1.97923 -1.94068 -1.22513 -1.03814 -0.65203 -0.291069 0 1.38778e-17 
-1.38778e-17 -1.38778e-17 0 -2.85251 -2.61707 -2.69096 -2.84745 -2.21391 -2.41047 
-2.58608 -1.24143 -2.07387 -1.06455 -1.25258 -1.00871 -1.07551 -0.789921 -0.179224 
0 -1.38778e-17 -2.84228 -2.4662 -2.89273 -3.07219 -2.27409 -2.40798 -2.60774 
-2.24073 -1.86028 -2.82477 0 0 -0.197818 -0.738341 -1.08186 -0.772343 
-0.735241 -0.762354 -0.631633 -0.379601 -0.538278 -0.0861545 -2.08167e-17 -1.38778e-17 -1.38778e-17 
-0.0151717 1.38778e-17 0 -0.219098 -0.134243 0 -6.93889e-18 1.38778e-17 1.38778e-17 
6.93889e-18 -6.93889e-18 -1.38778e-17 -1.38778e-17 1.38778e-17 1.38778e-17 -1.38778e-17 -6.93889e-18 0 
0 0 1.38778e-17 6.93889e-18 -1.57869 -2.23829 -1.84543 -1.04122 -0.655168 
-0.499739 -6.93889e-18 -1.38778e-17 6.93889e-18 0 1.38778e-17 -2.05711 -2.01099 -1.96711 
-2.29651 -2.26708 -1.90665 -2.25485 -1.91333 -1.75317 -1.55075 -0.237267 -0.76605 
-0.799508 0 0 1.38778e-17 -2.77556e-17 -2.43266 -2.10497 -2.29151 -1.59925 
-1.64084 -1.96287 -2.12707 -1.86629 -1.78782 0 2.77556e-17 -0.216494 -0.526906 
-0.0256177 -0.0716244 -0.20417 -2.77556e-17 0 0 -0.0904535 0 0 
0 0 0 -6.93889e-18 0 0 -1.38778e-17 -1.04506 -1.35903 
-1.69544 -0.435213 -0.433335 6.93889e-18 -1.60269 -1.62217 -1.51611 -1.83899 -1.47478 
-1.12801 -1.40701 0 0 2.77556e-17 -1.15844 0 0 -1.09534 
-1.22015 -1.36132 -1.55244 -1.23903 -1.73365 -1.61805 -1.13852 -1.61555 1.38778e-17 
-1.38778e-17 0 -2.60209e-17 -2.77556e-17 3.46945e-18 0 0 0 0 
0 -1.38778e-17 1.38778e-17 0 -0.28146 -0.88426 -1.26964 0 6.93889e-18 
1.38778e-17 -1.38778e-17 -1.3408 -1.31118 -1.32115 -1.08071 -1.17867 -0.988144 -1.19464 
-1.11434 -0.736926 -0.733004 -1.20101 -0.976975 -5.55112e-17 0 -0.801179 -0.317768 
-0.677514 -0.620909 -0.944718 -1.02323 -0.778472 -1.19984 -1.15694 -0.426797 -1.4203 
-1.07733 6.93889e-18 0 -0.275698 -0.520424 -0.542832 -0.537639 -0.629241 -0.561985 
-0.702029 -0.285808 -0.895825 -0.342652 -0.154513 -0.30246 -0.437721 -0.448563 -0.620094 
-0.322904 0 -0.228564 -0.702566 -0.0825589 0 2.77556e-17 -0.0445644 -0.120427 
-0.579559 -0.711419 0 0 0 -0.203528 -0.833623 -0.446104 1.38778e-17 
-0.0635583 1.38778e-17 -0.0344306 -0.285999 -0.161481 -0.380776 -0.278156 1.38778e-17 -1.38778e-17 
-0.157606 -0.459367 1.38778e-17 -0.266334 -0.118037 0 0 -1.38778e-17 0 
-6.93889e-18 -1.73472e-17 -1.38778e-17 -1.73472e-17 -0.172814 -0.193884 -0.536005 -0.301513 2.77556e-17 
2.77556e-17 -0.268436 2.77556e-17 0 -0.278247 -1.38778e-17 1.38778e-17 0 -6.93889e-18 
0 6.93889e-18 6.93889e-18 1.38778e-17 -0.180064 -0.479938 -0.00697571 2.77556e-17 -8.67362e-19 
-0.714495 -1.21431e-17 -1.38778e-17 -6.93889e-18 -0.33803 -6.93889e-18 -6.93889e-18 6.93889e-18 0 
0 0 0 1.38778e-17 0 0 0 -1.38778e-17 0 
6.93889e-18 -0.0507201 0 -2.77556e-17 1.38778e-17 0 0 6.93889e-18 -1.38778e-17 
2.77556e-17 1.38778e-17 -0.22559 -0.243587 1.38778e-17 1.38778e-17 1.38778e-17 0 1.38778e-17 
-3.46945e-18 -1.38778e-17 -0.25779 -0.137317 6.93889e-18 0 0 0 2.77556e-17 
0 0 0 1.38778e-17 0 2.77556e-17 0 0 0 
0 
