# vtk DataFile Version 4.2
3D Slicer output. SPACE=LPS
ASCII
DATASET POLYDATA
POINTS 2384 float
-34.5968 15.9877 14.5898 -34.4532 16.0163 14.6508 -34.6247 16.008 14.5921 
-34.6365 15.9824 14.569 -34.36 16.0357 14.6861 -34.4289 16.3413 14.733 
-34.8322 16.2862 14.6001 -34.8979 15.9466 14.4279 -34.9378 16.0316 14.4698 
-34.1227 16.1078 14.6993 -33.9056 16.4947 14.8407 -34.8926 16.7532 14.6506 
-34.349 16.8834 14.8375 -35.2135 16.3226 14.4187 -35.1226 15.9084 14.3123 
-35.1639 15.9351 14.3139 -33.9833 16.1409 14.7257 -33.5577 16.2647 14.7585 
-33.4314 16.6438 14.8924 -33.8014 17.012 14.9427 -34.7307 17.2397 14.7841 
-35.1627 17.2948 14.6287 -35.468 16.8641 14.3891 -34.2935 17.479 14.9146 
-35.4462 16.0354 14.1962 -35.6459 16.3731 14.1655 -35.1923 15.8961 14.2744 
-35.3957 15.8709 14.1346 -33.4332 16.2995 14.7705 -32.952 16.4582 14.7442 
-33.4362 16.9384 14.9607 -33.132 16.9117 14.9074 -33.7713 17.4845 14.9817 
-33.4144 17.2333 14.9729 -34.9176 17.7514 14.7953 -35.3619 17.6954 14.615 
-35.5882 17.399 14.4356 -35.8533 16.7276 14.115 -35.8816 17.1336 14.1887 
-34.4993 18.0015 14.9364 -33.9387 18.002 14.9995 -35.6247 15.8431 13.9553 
-35.7619 15.9162 13.9009 -36.0585 16.3762 13.8506 -33.0443 16.4055 14.7414 
-32.9648 16.4267 14.7352 -32.904 16.4494 14.7178 -32.6211 16.5807 14.6857 
-32.9452 16.4372 14.7254 -32.6734 16.9195 14.7731 -32.9909 17.3596 14.9105 
-33.3895 17.7183 14.981 -35.4054 18.1526 14.7005 -34.9455 18.3645 14.9067 
-35.7296 17.8405 14.4604 -35.9209 17.5303 14.2598 -36.176 16.8703 13.896 
-36.256 17.3972 13.967 -34.3833 18.4308 15.0213 -33.8868 18.5981 15.0792 
-33.3203 18.3402 15.0104 -35.7289 15.8313 13.8715 -35.8124 15.822 13.7938 
-36.0727 15.7936 13.5493 -36.1522 15.9524 13.5876 -36.332 16.2332 13.5568 
-36.4185 16.5707 13.5781 -32.6176 16.5399 14.6567 -32.3675 16.6744 14.5361 
-32.5076 17.5154 14.7746 -32.3182 17.0846 14.6434 -32.91 17.8942 14.9141 
-35.3231 18.4898 14.8325 -35.5873 18.5601 14.7544 -35.9572 18.3702 14.5053 
-35.3368 18.905 14.9671 -34.7231 18.8389 15.0723 -36.1367 17.8814 14.2127 
-36.5332 17.0289 13.5938 -36.6679 17.5478 13.6232 -36.4513 17.8264 13.9439 
-34.2756 18.8175 15.1131 -33.9548 19.066 15.188 -33.427 18.9809 15.1332 
-32.7742 18.3707 14.9137 -32.9089 18.8226 15.0072 -36.2699 15.7711 13.3306 
-36.3411 15.7636 13.2504 -36.406 16.0063 13.361 -36.5658 16.2697 13.2981 
-36.7728 16.6674 13.1677 -32.3937 16.6436 14.538 -32.368 16.6582 14.5203 
-32.3336 16.6713 14.5034 -32.0559 16.9882 14.4315 -32.5136 18.0758 14.8145 
-32.0934 17.4278 14.5631 -32.1598 17.9273 14.6479 -35.9007 18.9082 14.7681 
-36.5122 18.3268 14.1133 -36.4349 18.9222 14.5093 -35.8314 19.4323 15.0689 
-35.385 19.3269 15.1319 -34.9543 19.3502 15.2235 -34.4059 19.1865 15.2133 
-36.8585 17.1919 13.2579 -36.7084 17.9998 13.7726 -36.9422 17.5663 13.299 
-36.9418 17.9166 13.4635 -34.0704 19.4421 15.3209 -33.6575 19.4262 15.2994 
-33.2617 19.4029 15.2377 -32.9879 19.2262 15.1211 -32.5081 18.3836 14.8375 
-32.5002 18.6897 14.871 -32.4485 19.2886 14.9891 -36.401 15.7582 13.1678 
-36.5934 15.9211 13.0473 -36.7777 16.233 12.9756 -37.1251 17.0308 12.7562 
-37.0278 16.4031 12.628 -32.0791 16.7955 14.342 -31.8587 16.9111 14.1666 
-31.7881 17.3202 14.299 -32.2642 18.387 14.7375 -31.8077 17.7873 14.4099 
-31.8081 18.3969 14.4848 -36.2409 19.2626 14.8107 -37.011 18.4062 13.6829 
-36.9323 18.8739 14.1215 -36.5757 19.3627 14.7213 -36.9306 19.326 14.5 
-36.1623 19.9579 15.3052 -36.4479 19.6595 14.9839 -35.7496 19.8175 15.3265 
-35.3982 19.6391 15.2909 -34.4506 19.6525 15.4047 -34.9666 19.9559 15.5372 
-37.0717 17.4144 13.0418 -37.1812 17.8242 13.052 -37.1729 18.1842 13.3019 
-33.8913 19.9367 15.5495 -33.3253 19.771 15.4044 -32.8921 19.6095 15.2417 
-32.1116 18.8385 14.7331 -32.436 19.9049 15.2389 -31.8805 19.302 14.7338 
-31.8739 19.8587 14.9552 -36.5762 15.7449 12.8983 -36.7169 15.7323 12.6607 
-36.8365 15.924 12.6615 -37.3213 17.0554 12.3566 -37.2705 16.71 12.2764 
-37.2362 17.5142 12.7891 -37.3358 17.3705 12.4758 -37.1894 16.352 12.2838 
-37.0844 15.9619 12.2017 -31.7971 16.9453 14.1142 -31.5476 17.2326 14.0077 
-31.5087 17.6154 14.1006 -31.5282 18.0366 14.2169 -31.3198 18.4542 14.1156 
-31.7549 18.9296 14.559 -31.5182 18.8007 14.3685 -37.4716 19.0154 13.6928 
-37.3862 18.5351 13.2643 -37.253 19.2458 14.1867 -36.8135 19.6063 14.7833 
-37.3206 19.5402 14.4341 -37.159 19.7203 14.7003 -36.581 20.0183 15.1931 
-35.8516 20.1002 15.4969 -36.1604 20.4101 15.6359 -36.5338 20.2932 15.4224 
-36.9297 19.9388 14.9829 -35.4893 20.0106 15.5075 -34.4359 20.132 15.6623 
-35.2749 20.2719 15.7139 -35.0133 20.2729 15.7343 -34.7673 20.4317 15.8383 
-37.3052 17.7634 12.7781 -37.3596 18.2203 13.0095 -37.4301 18.003 12.6514 
-34.1433 20.4505 15.8542 -33.6979 20.499 15.8615 -33.3317 20.2242 15.6496 
-32.8859 20.0581 15.4599 -32.4367 20.3967 15.5059 -32.1022 20.2197 15.266 
-31.4323 19.2822 14.4418 -31.6356 19.5788 14.6924 -31.3364 19.8543 14.6049 
-31.7589 20.4062 15.1849 -31.4012 20.285 14.8721 -36.865 15.7118 12.4417 
-36.9164 15.7057 12.3355 -37.3779 16.9588 12.1305 -37.4221 17.2282 12.126 
-37.4322 16.8489 11.7442 -37.2874 16.3622 12.0001 -37.3635 17.6798 12.5881 
-37.4849 17.6951 12.2156 -37.1255 15.68 11.7145 -37.0739 15.6856 11.87 
-37.2485 16.0169 11.8033 -37.0098 15.6968 12.1347 -31.7353 16.9745 14.0661 
-31.5263 17.0904 13.875 -31.2256 17.3782 13.6341 -31.2356 17.9277 13.8961 
-30.9306 18.2759 13.6707 -30.9754 18.8217 13.9017 -31.2688 18.9151 14.2022 
-37.602 19.5013 14.1446 -37.9821 19.5357 13.7181 -37.6891 18.8648 13.1295 
-37.953 19.2387 13.2438 -37.6368 18.5242 12.7324 -37.629 19.9443 14.5961 
-37.2757 19.9818 14.8506 -36.8618 20.234 15.2382 -35.6908 20.3631 15.714 
-36.5512 20.5708 15.6301 -35.9376 20.8277 15.953 -36.4162 20.8049 15.8298 
-36.9285 20.5868 15.4659 -37.3507 20.3459 15.0721 -34.4394 20.4675 15.8645 
-35.4289 20.6297 15.9273 -35.0973 20.486 15.8659 -35.0669 20.8896 16.0961 
-34.4459 20.913 16.1185 -37.678 18.2471 12.1189 -33.9555 20.8372 16.0706 
-33.2563 20.6712 15.9008 -33.5575 20.9637 16.1041 -32.8848 20.4856 15.7051 
-32.5612 20.722 15.74 -32.0458 20.5369 15.4171 -32.1918 20.8914 15.668 
-31.0968 19.1851 14.1396 -30.9452 19.6307 14.1656 -30.9605 20.0762 14.4047 
-31.1136 20.2291 14.6252 -31.3795 20.752 15.1155 -31.7837 20.7887 15.4125 
-30.97 20.5915 14.669 -37.5123 17.4091 11.8074 -37.4996 16.8616 11.2426 
-37.4397 16.3957 11.1945 -37.3681 16.3169 11.6465 -37.5661 17.384 11.2317 
-37.6186 17.8424 11.6991 -37.1534 15.6774 11.5961 -37.3214 15.983 11.4461 
-31.3531 17.1955 13.6932 -31.2666 17.2517 13.597 -31.2153 17.2935 13.5261 
-31.0936 17.3519 13.4101 -30.9095 17.5934 13.3476 -30.9847 17.8176 13.5661 
-30.6965 17.9472 13.2395 -30.6401 18.3629 13.3611 -30.7198 18.6351 13.5623 
-30.636 19.048 13.6158 -30.8637 19.2301 13.9363 -37.9542 19.817 14.1786 
-38.3214 20.0021 13.9256 -38.3649 19.7714 13.4869 -38.2187 19.5345 13.3088 
-38.0272 19.0618 12.6894 -38.3548 19.5165 12.9192 -37.9208 18.7478 12.2099 
-37.9156 20.4511 14.8143 -37.9891 20.2074 14.6138 -38.0342 20.0473 14.4069 
-36.73 20.7929 15.7131 -35.5438 21.0206 16.1284 -36.3934 21.231 16.0429 
-35.9222 21.4005 16.212 -36.705 21.0507 15.8605 -37.017 21.0133 15.6869 
-37.4383 20.9345 15.3937 -37.7674 20.7609 15.0975 -35.3728 21.4084 16.3063 
-34.8638 21.4064 16.3519 -34.44 21.4812 16.4022 -33.9208 21.4134 16.3274 
-37.7597 18.2557 11.5511 -37.9056 18.6049 11.7163 -33.1778 21.035 16.0829 
-32.823 20.9181 15.9235 -33.2887 21.4041 16.2471 -32.4999 20.9619 15.8373 
-31.8264 21.0935 15.59 -31.9989 21.3219 15.7547 -32.4502 21.3432 15.9539 
-30.671 19.4442 13.8082 -30.5129 19.8748 13.7859 -30.7211 20.062 14.1388 
-30.9391 20.3153 14.5163 -30.7595 20.3568 14.3345 -31.53 21.0763 15.4023 
-31.0005 21.0537 14.9538 -31.2547 21.0973 15.2128 -30.5728 20.7268 14.2709 
-30.6884 21.0269 14.5831 -37.5006 16.8074 10.7913 -37.4573 16.3811 10.7591 
-37.3896 15.9955 10.7468 -37.3831 16.0082 11.1429 -37.554 17.3732 10.5537 
-37.6967 17.9974 11.239 -37.6662 17.8871 10.7637 -37.2121 15.6534 11.3273 
-37.2858 15.7208 11.151 -30.9342 17.4383 13.2458 -30.7607 17.5694 13.0922 
-30.5596 17.7105 12.8547 -30.43 18.049 12.9 -30.4668 18.2902 13.091 
-30.4281 18.7139 13.2183 -30.38 19.1028 13.3169 -30.4207 19.44 13.497 
-38.1455 19.9823 14.2068 -38.5839 20.0465 13.5272 -38.4724 20.4435 14.2327 
-38.7495 20.4214 13.7072 -38.2475 20.1377 14.2649 -38.6109 19.9099 13.2312 
-38.4382 19.6941 13.1798 -38.2216 19.148 12.1478 -38.4561 19.4884 12.4241 
-38.6045 19.7983 12.98 -38.7542 19.8977 12.6658 -38.0975 18.9294 11.8196 
-38.1101 20.3717 14.6539 -38.1935 21.0287 14.8895 -38.2666 20.5794 14.61 
-38.2022 20.287 14.4831 -36.5141 21.6088 16.1277 -36.9125 21.4911 15.9163 
-36.2765 21.5331 16.1905 -36.2152 21.953 16.2495 -35.6436 21.8971 16.3795 
-37.3165 21.3375 15.6642 -37.8609 21.1114 15.2118 -37.7358 21.5105 15.4255 
-35.146 21.8691 16.4665 -34.668 21.898 16.5316 -34.2713 21.7962 16.513 
-33.9515 22.0629 16.5261 -33.4507 21.9059 16.3874 -37.7814 18.2732 11.2475 
-37.8826 18.5078 11.2657 -38.1233 18.9178 11.3151 -32.9179 21.2858 16.1247 
-32.9909 21.5022 16.228 -32.9969 21.7822 16.2703 -31.6556 21.407 15.6038 
-31.9113 21.8806 15.8364 -32.7733 21.5668 16.1675 -32.543 21.9538 16.1332 
-30.2053 19.8435 13.3314 -30.2189 20.3269 13.5363 -30.4835 20.3804 13.9783 
-31.3114 21.3609 15.3621 -31.0884 21.2832 15.157 -30.9458 21.3199 15.0346 
-30.7687 21.3501 14.8328 -30.4312 21.0867 14.2508 -30.2109 20.9597 13.7754 
-30.4928 21.401 14.4713 -37.474 16.9105 10.2467 -37.4217 16.3488 10.3169 
-37.2938 15.67 10.7449 -37.3813 15.9806 10.3483 -37.3022 15.7116 10.3455 
-37.2894 15.6643 10.4607 -37.4974 17.3806 10.057 -37.6101 17.8567 10.2188 
-37.7926 18.2925 10.9517 -37.8069 18.3876 10.4179 -37.2547 15.6459 11.1409 
-37.2743 15.6501 10.985 -30.8078 17.5091 13.1115 -30.7609 17.5401 13.0559 
-30.5889 17.6601 12.852 -30.3074 17.9262 12.5792 -30.5535 17.684 12.8068 
-30.1983 18.4236 12.7187 -30.154 18.9229 12.8976 -30.2744 19.0138 13.1338 
-30.1555 19.3555 13.0735 -38.8108 20.194 13.2594 -38.7998 20.8086 14.0628 
[...]
POINT_DATA 2384
SCALARS scalars float
LOOKUP_TABLE default
-3.46945e-18 0 -0.0273761 0 -3.46945e-18 -0.319474 -0.343285 1.38778e-17 -0.103223 
0 -0.349704 -0.81255 -0.834813 -0.437946 0 -0.0379007 -2.77556e-17 -1.38778e-17 
-0.367735 -0.828154 -1.26253 -1.39322 -1.01202 -1.40299 -0.182712 -0.547619 0 
1.38778e-17 -1.38778e-17 -0.0294983 -0.659432 -0.537604 -1.27397 -0.931813 -1.80133 -1.82267 
-1.56159 -0.928567 -1.33647 -1.96008 -1.81642 0 -0.0960439 -0.601619 3.46945e-18 
0 3.46945e-18 -0.0515355 3.46945e-18 -0.388627 -0.914958 -1.38157 -2.28542 -2.41326 
-2.02268 -1.73786 -1.10997 -1.64552 -2.35149 -2.37556 -1.94824 0 1.38778e-17 
0 -0.181322 -0.49194 -0.837927 0 -0.0226747 -0.895674 -0.420201 -1.38968 
-2.61005 -2.72613 -2.59027 -3.03145 -2.83584 -2.11861 -1.30735 -1.84281 -2.10126 
-2.7012 -2.85215 -2.60178 -1.79355 -2.27351 1.38778e-17 0 -0.267831 -0.551739 
-0.968323 -3.46945e-18 -3.46945e-18 0 -0.210032 -1.42514 -0.660225 -1.15675 -3.13393 
-2.62017 -3.23274 -3.66903 -3.47208 -3.40334 -3.10096 -1.50359 -2.30641 -1.88907 
-2.24499 -3.26131 -3.11912 -2.96781 -2.69827 -1.71468 -2.00538 -2.58225 0 
-0.19407 -0.533439 -1.36574 -0.727664 0 6.93889e-18 -0.41649 -1.63032 -0.882893 
-1.46542 -3.56132 -2.7599 -3.25047 -3.7254 -3.74504 -4.29715 -4.0238 -4.06323 
-3.79983 -3.58327 -4.03405 -1.74803 -2.17109 -2.54158 -3.71644 -3.36833 -3.06045 
-2.01282 -3.22955 -2.39694 -2.98812 0 0 -0.221165 -1.40944 -1.05939 
-1.86207 -1.72438 -0.697634 -0.292122 0 -0.190482 -0.567293 -0.995811 -1.31057 
-1.97156 -1.74805 -3.46852 -2.92974 -3.70381 -4.0322 -4.04781 -4.22192 -4.44177 
-4.39162 -4.79589 -4.73834 -4.41944 -4.21589 -4.0782 -4.4492 -4.38449 -4.48887 
-2.11876 -2.59352 -2.3711 -4.33758 -4.26536 -3.85701 -3.53896 -3.77571 -3.46418 
-2.20579 -2.59871 -2.52415 -3.15772 -2.71351 1.38778e-17 -6.93889e-18 -1.31738 -1.58743 
-1.20607 -0.71601 -2.03773 -2.0589 -1.38778e-17 0 -0.368944 -1.38778e-17 0 
0 -0.12929 -0.737423 -0.93882 -1.53097 -1.75988 -4.04296 -4.12368 -3.31405 
-3.76394 -2.93346 -4.55547 -4.53377 -4.73306 -4.64481 -5.05228 -5.20241 -5.28202 
-5.13488 -4.94488 -4.43766 -4.87422 -4.63602 -5.05914 -4.91741 -2.63577 -4.70419 
-4.32887 -4.73267 -4.01273 -4.05201 -3.49793 -3.73515 -1.96697 -1.96999 -2.11385 
-2.35758 -2.83351 -3.29977 -2.26569 -1.7699 -1.21505 -0.749502 -0.677013 -1.73821 
-2.21178 -2.77556e-17 -0.340071 0 0 0 0 -0.187217 -0.485456 
-0.442001 -0.86038 -1.19754 -1.41319 -1.7864 -4.46032 -4.71196 -4.43925 -4.13994 
-3.55715 -4.11954 -3.18811 -5.16648 -4.92446 -4.74818 -5.33023 -5.31902 -5.72505 
-5.79596 -5.59916 -5.61055 -5.59189 -5.46618 -5.67777 -5.54951 -5.51981 -5.30328 
-2.64128 -3.02167 -4.68384 -4.33789 -4.82702 -4.05201 -3.42538 -3.62636 -4.05616 
-1.54591 -1.3859 -1.76593 -2.16058 -1.90862 -3.10798 -2.46013 -2.80123 -1.71184 
-1.99649 -1.15448 -0.730164 -0.342225 -0.367712 -1.72646 -2.36526 -2.24612 0 
-0.0886505 0 -0.0450051 -0.0460973 -0.371359 -0.669134 -0.987157 -1.01955 -1.15173 
-4.68618 -4.78017 -5.23073 -5.21525 -4.87715 -4.61956 -4.34873 -3.65628 -4.07746 
-4.4801 -4.59126 -3.39109 -5.12611 -5.80482 -5.36002 -5.0438 -6.12992 -6.07896 
-6.01052 -6.39773 -6.2234 -5.99235 -5.84436 -6.22071 -6.08448 -5.95296 -5.65698 
-5.37227 -4.95126 -2.65295 -2.90485 -3.36433 -4.49938 -4.59213 -4.57994 -3.29619 
-3.5549 -4.39248 -4.15208 -0.846866 -0.963802 -1.4644 -2.91945 -2.64547 -2.46737 
-2.20678 -1.58365 -1.08461 -1.76246 -1.24843 -0.694666 2.77556e-17 -0.326474 -0.0522585 
6.93889e-18 -1.67385 -2.1843 -2.66797 -2.76911 0 0 0 0 
0 -0.143242 0 -0.489245 -0.558248 -0.816577 -0.667236 -4.96051 -5.6506 
-5.78537 -5.85448 -5.37766 -4.74092 -4.05631 -3.76744 -4.57644 -5.04858 -5.11178 
-6.28058 -6.39898 -6.17971 -6.45976 -6.22596 -6.57265 -6.47697 -6.87859 -6.9205 
-6.66801 -6.3335 -6.31434 -6.66647 -6.63361 -6.63061 -6.08825 -5.84743 -5.69441 
-5.51163 -5.30427 -5.01746 -4.47182 -3.06658 -3.52288 -3.9303 -3.04452 -3.11431 
-3.80553 -3.52642 -3.23951 -4.11056 -0.373548 -0.527425 -0.470347 -2.54701 -2.01456 
-1.3707 -0.56108 -0.648046 -1.02144 -1.4154 -1.23057 -0.893836 -0.491913 -0.242967 
-1.38778e-17 0 -6.93889e-18 -1.61033 -2.00506 -2.55002 -3.21651 -3.21723 1.38778e-17 
0 -0.0790985 0 -2.08167e-17 -0.126531 -0.282836 -0.228824 -5.89909 -5.9457 
-6.24275 -6.15906 -6.42751 -5.72064 -6.3035 -5.99538 -5.48485 -4.24784 -4.76337 
-5.2025 -5.7306 -6.7788 -6.68784 -6.71456 -6.80437 -7.0532 -7.05492 -6.97365 
-7.33606 -6.62131 -6.26916 -5.88959 -7.16171 -7.01888 -7.03774 -5.64456 -5.69279 
-5.27378 -4.69672 -4.25791 -3.97386 -3.9011 -3.43907 -3.78016 -4.39943 -4.36076 
-2.75196 -2.90823 -3.44308 -2.81485 -3.46945e-18 3.46945e-18 -1.38778e-17 2.08167e-17 -2.77556e-17 
-1.38778e-17 -0.244466 -2.27795 -1.87343 -0.323372 -0.681381 -0.224941 -0.974417 -0.81827 
-1.26984 -1.66521 -1.17653 -0.871393 -0.684525 -0.0498235 -0.128756 -1.38778e-17 -1.62504 
-2.00915 -2.55736 -2.28296 -3.12455 -2.84202 -3.69358 6.93889e-18 0 1.38778e-17 
0 0 0 -1.38778e-17 -1.38778e-17 -6.59424 -6.91502 -6.75945 -5.90219 
-6.21171 -6.57979 -4.70164 -5.22203 -5.0034 -5.79771 -6.33659 -6.26745 -7.25999 
-7.0855 -7.12927 -7.47129 -7.58263 -6.97397 -6.70488 -7.47473 -7.14013 -6.50665 
-6.24776 -5.82701 -5.57802 -5.47786 -7.56315 -7.51495 -4.94901 -4.61298 -4.30236 
-4.00529 -4.06332 -3.68329 -4.23631 -4.99663 -4.82172 -2.54238 -3.35421 -3.1054 
-2.70976 -2.23887 -2.26416 1.38778e-17 1.38778e-17 -1.96381 -2.17469 1.38778e-17 -0.444531 
0 0 1.38778e-17 -0.205529 -0.3124 -0.678874 -1.27829 -1.77608 -1.1517 
-0.321781 -0.880138 -3.46945e-18 0 0 -1.38778e-17 -6.93889e-18 -1.45898 -1.9906 
-2.05147 -2.53309 -3.32137 -2.95257 -4.00101 -4.16885 -3.73434 -7.34505 -7.25205 
-7.08082 -6.83236 -5.3479 -5.694 -6.25753 -6.31614 -6.09116 -6.90279 -6.5904 
-7.57689 -7.53654 -7.71984 -7.72574 -8.05038 -7.86659 -6.69762 -6.43395 -7.3199 
-7.63786 -7.02152 -6.18031 -5.91041 -5.66604 -5.37463 -8.03367 -7.94353 -4.99794 
-4.72506 -4.49473 -4.00937 -3.96133 -3.58793 -3.27853 -3.16026 -4.54132 -5.39354 
-5.31189 -5.31933 -4.92179 -2.32969 -2.79937 -2.45579 -1.80528 -2.1217 -1.81335 
-1.38778e-17 -0.255569 -6.93889e-18 -2.77556e-17 -0.0747696 -0.794044 -1.20639 -1.47447 2.42861e-17 
-6.93889e-18 -0.416415 -0.882934 -1.27443 -1.77693 -2.49355 -2.25301 -3.54352 -3.31931 
-2.65773 -2.4928 -3.07109 -3.90841 -4.33982 -7.71536 -7.70046 -7.33898 -7.32199 
-5.60813 -5.92765 -6.40005 -6.78595 -6.43143 -6.98845 -7.38718 -7.96356 -8.17163 
-8.14016 -7.91523 -8.00714 -6.76238 -6.2561 -6.30367 -7.17544 -7.45959 -7.59454 
-6.05335 -5.56478 -5.86204 -5.20046 -8.17924 -8.37617 -4.77782 -4.42912 -4.21683 
-3.9228 -3.63305 -3.43406 -3.00385 -4.71823 -5.65564 -4.96703 -5.72557 -5.39857 
-2.07956 -2.62704 -2.34297 -1.32195 -1.68406 0 0 0 0 
0 -0.2817 -0.66482 -0.974219 1.38778e-17 -2.77556e-17 -0.480696 -0.818897 -1.31275 
-1.71238 -1.5611 -1.88782 -3.30411 -2.4155 -2.18523 -2.70024 -2.89907 -4.30752 
-3.98043 -3.49671 -8.12426 -7.74232 -8.14366 -8.17324 -7.73032 -6.01795 -6.9996 
-7.32885 -7.32515 -6.23009 -6.59589 -7.72401 -7.7345 -8.26815 -8.4655 -7.57694 
-7.55449 -7.57235 -7.04512 -6.75852 -6.38063 -5.90512 -7.07195 -7.10067 -5.39707 
-5.54228 -5.11865 -7.78537 -5.10652 -4.50465 -4.08109 -3.91428 -3.16746 -3.34986 
-3.76318 -2.73084 -4.48324 -4.64912 -4.87826 -5.816 -5.46767 -1.84816 -2.24926 
-1.40834 2.77556e-17 1.38778e-17 -0.218849 -0.649778 -0.498291 -1.19571 -0.876806 6.93889e-18 
-0.237912 -0.616511 -0.275773 -1.24002 -0.819968 -1.39015 -1.57507 -1.30506 -2.98824 
-2.06514 -2.51339 -3.59114 -4.29407 -3.81825 -3.27677 -8.53546 -8.15331 -8.55282 
-8.01173 -7.24465 -6.95024 -7.76659 -7.47972 -5.85363 -6.1866 -6.42332 -8.16486 
-7.73334 -8.09922 -7.15051 -7.05913 -7.16747 -6.60555 -6.68936 -6.57611 -6.39048 
-5.93366 -5.46317 -6.63993 -6.42765 -6.5938 -7.29768 -4.98392 -4.61938 -4.26859 
-4.0354 -2.89578 -3.63015 -3.08446 -2.46004 -5.32303 -4.30218 -4.77749 -5.61212 
-1.48755 -1.73906 -2.02449 0 -0.292512 -0.739921 -1.2555 6.93889e-18 0 
-1.38778e-17 -0.0497678 -0.433734 -0.103234 1.38778e-17 0 6.93889e-18 -0.442608 -0.275183 
-1.08667 -0.784957 -1.01956 -1.04657 -1.69932 -1.35515 -2.96104 -2.57062 -2.02931 
-3.41851 -3.99183 -3.64944 -7.90543 -8.48237 -8.33866 -8.01657 -6.93131 -8.13904 
-7.74934 -7.3619 -5.84702 -6.01106 -6.48808 -8.38477 -7.69389 -7.32851 -6.62185 
-6.83991 -6.88766 -6.84862 -6.15265 -6.29449 -6.10082 -6.02186 -5.82581 -5.34154 
-6.02027 -6.10417 -6.05473 -6.97972 -4.86774 -4.45949 -3.9839 -4.00214 -2.62536 
-3.64587 -3.25139 -2.803 -2.25295 -5.59426 -5.22015 -3.89737 -4.33864 -4.02057 
-4.92685 -4.59957 -1.57647 -1.87744 -1.38778e-17 -0.103398 -0.401062 -0.49654 -0.962979 
-1.18523 0 6.93889e-18 1.38778e-17 0 -0.102104 -0.189381 1.38778e-17 -0.526251 
-0.590636 -1.00644 -1.4576 -2.40656 -3.28214 -2.93268 -1.68118 -1.82626 -3.54851 
-7.38967 -7.56555 -7.43662 -8.00006 -7.80191 -7.76919 -6.91797 -7.89926 -7.41063 
-7.16065 -6.86548 -5.63478 -6.11113 -6.52532 -6.89969 -6.57801 -6.14288 -6.5785 
-5.84083 -5.70686 -5.56224 -5.46036 -5.5085 -5.4076 -4.9092 -5.42069 -5.56668 
-5.56005 -5.55768 -4.04189 -4.49918 -2.28 -3.62842 -3.37516 -3.0117 -2.57579 
-5.14622 -4.06468 -4.14325 -5.00887 -4.53294 -1.38225 -1.75305 0 0 
0 1.38778e-17 -0.0930667 -0.451914 -1.00677 -0.88611 -1.38778e-17 -6.93889e-18 -1.38778e-17 
1.38778e-17 1.38778e-17 -0.125615 -6.93889e-18 -0.26274 -0.594106 -1.00093 -1.38947 -2.51858 
-2.12198 -3.01141 -1.76642 -1.44587 -3.80261 -3.46866 -7.17206 -7.18711 -7.54421 
-7.53566 -7.39772 -7.52728 -6.60006 -7.17961 -6.88327 -6.56463 -6.25091 -5.86031 
-5.56257 -6.12952 -6.43659 -6.38813 -6.36338 -6.63423 -6.86041 -6.25442 -5.85513 
-6.19698 -5.55306 -5.14279 -5.09624 -4.97877 -4.98945 -5.13508 -5.21914 -5.07885 
-4.71516 -5.05975 -4.92245 -4.93113 -5.26349 -5.36838 -5.03398 -4.3874 -4.03767 
-3.75212 -2.31074 -2.0428 -3.39872 -3.02352 -2.71938 -2.36084 -3.81555 -4.05153 
-5.37354 -4.94301 -4.49269 -1.31197 -1.63363 -1.38778e-17 -1.38778e-17 -6.93889e-18 0 
-0.427377 -0.823261 -1.22386 6.93889e-18 1.38778e-17 0 -0.0756412 -1.38778e-17 -0.612574 
-0.94758 -2.15111 -2.60261 -3.12185 -1.37526 -1.80454 -3.57929 -6.69281 -7.12256 
-6.44619 -7.16298 -7.2328 -7.05531 -6.9839 -6.08727 -6.84665 -6.64215 -6.40053 
-5.91149 -5.6114 -5.89511 -6.08685 -5.9822 -5.8972 -5.54881 -4.96223 -4.52028 
-4.54426 -4.6772 -4.4919 -4.53425 -4.78614 -4.7933 -4.74956 -4.7318 -4.74387 
-4.72126 -4.50651 -5.24323 -4.96597 -4.52216 -4.34646 -4.03449 -3.72882 -1.95202 
-3.38065 -3.02001 -2.67993 -2.30122 -3.72396 -4.02696 -5.63001 -5.32023 -4.9853 
-4.27646 -4.61632 -1.53844 0 -0.070131 -0.439828 -0.770781 -1.14288 6.93889e-18 
0 0 -0.256114 -0.0730642 0 -0.467644 -1.01023 -0.527182 -2.19794 
-2.85922 -2.48232 -3.27875 -1.48704 -2.01072 -6.75382 -6.30532 -6.40366 -6.17052 
-5.86321 -6.73283 -6.91821 -6.63842 -6.56664 -6.55226 -6.38185 -5.67458 -6.46569 
-6.02109 -5.51746 -5.14982 -5.33928 -5.01306 -5.67967 -5.58976 -5.70358 -5.41539 
-5.55411 -5.30411 -3.98127 -4.07155 -4.0764 -4.06504 -4.27286 -3.96084 -4.44507 
-4.03548 -4.40403 -4.20336 -4.2724 -4.6116 -4.43069 -4.10078 -5.03432 -4.58704 
-4.33235 -4.05853 -4.05504 -4.24881 -3.85059 -1.85997 -3.3237 -3.02372 -2.70069 
-2.2698 -3.64055 -3.94084 -5.45474 -5.37123 -5.16125 -4.89942 -4.48663 -1.39421 
-3.46945e-18 0 0 -0.202692 -0.682403 -1.03884 6.93889e-18 -0.465254 -0.0433859 
0 -0.787665 -1.20419 -2.83544 -2.42178 -3.22072 -1.69315 -2.08042 -6.38911 
-5.93196 -5.83188 -5.28815 -6.19266 -6.29996 -6.08179 -6.23678 -6.04528 -5.94944 
-5.32545 -5.71197 -5.16911 -5.18777 -4.92071 -4.58159 -4.51705 -5.12594 -4.4947 
-4.85412 -5.31263 -5.13271 -5.31659 -5.02614 -3.41008 -3.58051 -3.72979 -3.55896 
-3.87686 -3.51117 -3.39286 -3.52663 -4.07893 -3.62261 -4.12745 -3.85584 -3.80043 
-3.96496 -4.36071 -4.73959 -4.15199 -4.37251 -3.68437 -3.61902 -4.13982 -3.63098 
-1.58767 -1.95097 -3.01919 -2.57577 -2.23351 -3.25667 -3.58399 -4.27087 -3.91256 
-4.93382 -4.85046 -4.66486 -4.66796 -1.11808 -1.38778e-17 -6.93889e-18 -0.387677 -0.749504 
-0.798859 -0.34 -0.878124 -6.93889e-18 0 -1.51883 -1.18843 -2.74034 -2.35596 
-2.80075 -1.8953 -6.06562 -5.57586 -5.45081 -4.72964 -4.78273 -5.12341 -5.99971 
-5.69154 -5.57863 -5.74295 -5.82809 -5.64398 -5.61801 -4.57409 -4.95665 -4.61178 
-5.36312 -4.3038 -3.98745 -3.95843 -4.0825 -4.36735 -4.15799 -4.70191 -4.28115 
-4.71095 -3.29025 -2.99253 -2.89268 -3.42565 -3.05532 -2.84025 -3.09862 -3.18252 
-3.06071 -3.08982 -3.01655 -3.25315 -3.46727 -3.46605 -4.04828 -3.43174 -3.74231 
-3.95159 -3.91004 -4.23626 -3.39248 -3.71513 -3.18808 -3.02938 -3.43435 -3.70682 
-3.64225 -3.16829 -1.81769 -1.36297 -2.64735 -2.18879 -3.2109 -2.77031 -3.66126 
-4.4886 -4.15231 -4.34672 -4.41099 -4.56376 -4.2746 -0.930762 2.77556e-17 -0.173506 
-0.583273 -1.12491 -0.772586 0 -0.175359 -1.57919 -2.0493 -2.36627 -5.71673 
-5.78996 -5.2727 -4.99539 -4.39538 -5.01884 -5.20625 -5.46463 -5.41405 -5.21141 
-4.2359 -4.60218 -4.11126 -3.87422 -3.5846 -3.22539 -3.51737 -3.89067 -3.45636 
-3.25988 -4.03501 -3.85127 -3.82354 -2.57032 -2.47579 -2.33758 -2.85612 -2.48475 
-2.44908 -2.41957 -2.66027 -2.85597 -2.76271 -2.73743 -2.58353 -2.65865 -2.63257 
-3.01049 -3.14905 -3.13321 -3.22764 -3.64033 -3.78606 -3.67372 -3.77995 -2.98419 
-2.61229 -2.52807 -3.39635 -3.23544 -3.26269 -3.1146 -2.66135 -1.60973 -1.06841 
-2.07796 -3.25337 -2.82697 -2.19502 -4.04832 -3.54721 -4.30415 -3.94845 -3.90952 
-3.83997 -0.625563 -1.38778e-17 0 1.38778e-17 -0.158025 -1.22504 -0.604079 -1.03849 
2.77556e-17 0 -0.256337 1.38778e-17 -1.94113 -1.53769 -5.36052 -4.99985 -4.8909 
-4.54536 -4.11067 -4.83375 -4.50615 -4.90951 -5.1623 -4.97542 -4.86229 -4.78989 
-4.76775 -4.35746 -4.17781 -3.89534 -3.66256 -3.49875 -3.65215 -2.9455 -3.17862 
-2.54778 -2.79917 -3.18452 -3.32232 -2.91073 -3.14133 -2.92399 -2.78217 -3.4621 
-3.64181 -3.24769 -2.3062 -2.14575 -1.94321 -1.97754 -1.93715 -2.17758 -2.0718 
-2.03903 -2.36474 -1.98394 -2.35504 -2.42448 -2.48898 -2.39054 -2.17701 -2.16946 
-2.18797 -2.42193 -2.78948 -2.64589 -3.7689 -3.49337 -3.2094 -3.0119 -2.67167 
-2.7507 -2.12602 -2.35011 -2.90953 -3.06689 -2.86847 -2.53628 -1.08042 -1.5049 
-0.651779 -1.95701 -3.04668 -2.53306 -1.85233 -1.73823 -1.77917 -1.98758 -4.06522 
-4.01355 -3.22651 -3.5877 -3.76072 -3.54372 -3.45224 -3.37574 -1.38778e-17 -1.38778e-17 
1.38778e-17 -0.210725 -0.732988 -1.00878 -1.34785 0 -0.560798 -0.0225686 0 
-4.96094 -4.69481 -4.62621 -4.25626 -3.93193 -4.49425 -3.96935 -4.6752 -4.48072 
-4.2546 -4.37991 -3.68434 -3.3529 -2.83577 -3.03577 -2.25976 -2.47315 -1.92566 
-2.21476 -2.33699 -2.68899 -3.07481 -2.54249 -2.26979 -2.52787 -3.07219 -2.87986 
-2.57017 -1.58477 -1.43475 -1.68944 -1.90888 -1.51671 -1.67853 -1.6027 -1.32811 
-1.7493 -1.97242 -2.13213 -1.62306 -1.80775 -1.89263 -1.85167 -2.42927 -2.12898 
-2.40623 -2.06916 -2.04912 -2.52572 -3.53467 -3.2197 -2.7697 -2.92205 -1.83321 
-1.90784 -1.98059 -1.99537 -2.50461 -2.70863 -2.76982 -2.46185 -2.25116 -0.995542 
-0.594979 -1.32539 -1.62158 -1.845 -2.88088 -2.27521 -2.52422 -1.64029 -2.05501 
-1.44435 -3.74016 -3.72402 -3.56263 -3.04998 -3.50597 -3.13611 -3.27716 -2.9976 
-2.97267 2.77556e-17 1.38778e-17 -0.165896 -0.930966 -1.03535 -0.0774949 -0.908456 -0.498127 
0 0 -3.46945e-18 -4.49429 -4.43754 -4.33918 -3.9355 -3.99189 -3.53333 
-4.38366 -4.12749 -3.97412 -3.83854 -3.84128 -3.6735 -3.12232 -2.7507 -2.36493 
-2.18799 -2.02003 -1.76443 -1.5744 -1.79763 -1.17462 -2.07668 -1.92788 -1.66082 
-2.65971 -2.41288 -1.90777 -2.26054 -1.42118 -1.04746 -1.05912 -1.33532 -1.04046 
-1.00618 -0.945847 -1.37013 -1.69085 -1.44726 -1.17073 -1.0925 -1.3104 -0.802105 
-0.931242 -1.46702 -1.09764 -1.2315 -1.47345 -1.26415 -1.64299 -1.56805 -2.17504 
-1.51957 -1.81835 -3.60089 -3.2823 -2.99238 -1.69173 -1.67921 -2.17588 -1.79922 
-1.62615 -2.54075 -2.51808 -2.36985 -1.96824 -1.83881 -2.09522 -1.0486 -0.571308 
-1.52451 -2.24383 -2.6062 -1.84507 -0.989621 -1.1863 -1.39859 -3.28887 -3.21347 
-3.14195 -2.63477 -2.96554 -2.61707 -2.76708 -2.92541 -2.496 1.38778e-17 0 
-0.188146 -0.0397566 0 0 -0.0598301 -0.417488 -0.87452 -3.99111 -4.07692 
-4.02683 -3.76134 -3.58312 -3.07814 -3.67023 -3.37737 -3.45159 -3.34341 -3.13199 
-2.86865 -2.51122 -2.14962 -1.85369 -1.53369 -1.6278 -1.3354 -1.00818 -1.54379 
-1.32551 -1.05925 -0.688828 -0.527602 -0.682104 -1.72248 -1.34442 -1.10369 -1.36639 
-2.42925 -2.15921 -1.54413 -1.67355 -1.25447 -0.685007 -0.656851 -0.588712 -0.737454 
-0.718571 -0.521459 -0.522983 -1.04376 -1.33129 -0.709823 -1.0005 -0.523474 -0.542083 
-0.570918 -0.602881 -0.675963 -1.16259 -0.813984 -1.11673 -0.856072 -0.918753 -1.01816 
-1.12154 -1.19859 -1.34706 -3.42348 -3.12596 -2.95643 -2.03933 -1.38004 -1.55118 
-2.80428 -2.30708 -2.01919 -2.0169 -2.10008 -1.52048 -1.69185 -1.28221 -0.48134 
-0.906782 -2.35048 -2.06042 -2.48163 -0.881686 -1.16985 -1.63911 -3.06714 -2.66713 
-2.29708 -2.24069 -2.05581 -2.7143 -2.14929 -2.42361 -2.57702 -1.92732 -2.13346 
-1.38778e-17 -6.93889e-18 0 6.93889e-18 -6.93889e-18 -6.93889e-18 0 -0.65556 6.93889e-18 
-0.385421 -3.71827 -3.52092 -3.80196 -3.54468 -2.7289 -2.82043 -3.05466 -3.25376 
-2.83881 -2.68325 -3.14999 -2.92194 -2.53869 -2.47567 -2.05543 -1.9471 -1.45166 
-1.4042 -1.00888 -1.00802 -1.16026 -0.907145 -0.400548 -1.5301 -1.04697 -1.31012 
-0.315637 -0.33446 1.38778e-17 0 -0.176297 -0.466072 -0.905589 -0.520881 -1.33871 
-1.41497 -0.964018 -0.759899 -0.780908 -0.989862 -0.333787 -0.327345 -0.201339 -0.348475 
-2.77556e-17 -1.38778e-17 -0.22896 -0.238613 -1.00544 -0.709739 -0.437046 -0.290546 -0.24977 
-0.162883 -0.170076 -0.196674 -0.496461 -0.558554 -0.495965 -0.632839 -0.808299 -0.985507 
-0.959672 -3.14903 -1.84092 -0.975459 -1.23954 -2.85105 -2.3212 -2.52431 -1.63502 
-1.71997 -1.85843 -1.16271 -1.56399 -1.13102 -0.718549 0 -6.93889e-18 -0.157563 
-2.32506 -2.00216 -0.715406 -0.99562 -1.32052 -1.58495 -2.10826 -2.16869 -2.48317 
-1.99197 -1.64784 -1.49573 -1.68813 -2.05888 -1.48682 -1.63726 -2.77556e-17 0 
-0.147458 -3.55908 -2.93135 -3.19607 -2.22787 -2.72572 -2.58547 -2.84473 -2.93294 
-2.42911 -2.32056 -2.06075 -1.84914 -1.58323 -1.57572 -1.18723 -0.910751 -0.908946 
-1.11815 -0.38189 -0.675273 -0.672559 2.77556e-17 1.38778e-17 0 0 -1.38778e-17 
-2.08167e-17 -1.38778e-17 -6.93889e-18 0 -1.38778e-17 -2.77556e-17 -0.343914 6.93889e-18 2.08167e-17 
-0.363608 -1.16544 -1.10541 -0.564098 -0.591958 -0.84711 -1.38778e-17 2.77556e-17 1.38778e-17 
0 -1.38778e-17 0 0 0 2.77556e-17 -2.77556e-17 2.77556e-17 2.77556e-17 
0 0 1.38778e-17 -2.77556e-17 -0.788342 -0.50217 -0.0617825 -2.77556e-17 0 
-1.38778e-17 -1.38778e-17 -1.38778e-17 -2.77556e-17 0 0 0 -0.121479 -0.112524 
-0.221454 -0.195395 -0.367632 -0.713358 -0.480325 -0.754319 -2.99273 -2.14576 -1.33853 
-1.78856 -0.755638 -0.529876 -0.988091 -2.75479 -2.24843 -1.37351 -1.5097 -0.754764 
-1.36749 -0.490317 -0.939075 6.93889e-18 -1.38778e-17 0 -1.75487 -1.40525 -0.639448 
-1.10663 -1.04986 -1.71332 -1.70963 -1.99001 -1.2273 -1.15311 -1.17586 -1.8482 
-0.945372 -1.34645 -0.883765 -1.18202 -1.31383 -1.38778e-17 0 0 1.38778e-17 
-0.244485 -2.50969 -2.48138 -2.67211 -2.68345 -2.4014 -2.01304 -2.07695 -1.75623 
-1.68907 -1.51827 -1.12603 -1.29855 -0.916474 -0.523243 -0.539664 -0.0232813 1.38778e-17 
1.38778e-17 -0.245527 2.77556e-17 0 2.77556e-17 -0.139449 0 -0.762875 -0.45775 
-0.223995 0 -6.93889e-18 -6.93889e-18 1.38778e-17 1.38778e-17 0 1.38778e-17 -1.38778e-17 
-1.38778e-17 1.38778e-17 0 -2.77556e-17 1.38778e-17 -1.38778e-17 -0.144539 1.38778e-17 -0.165512 
-0.446389 -1.51854 -0.99027 -1.00781 -1.31706 -1.58802 -0.154685 -0.640112 -2.15168 
-1.05737 -0.233776 -0.415931 -1.17953 -2.77556e-17 -0.58599 -0.151413 -0.797215 -1.05039 
-1.01342 -0.647862 -0.723395 -0.523219 -0.761374 -1.3398 -1.4536 -0.690647 -0.591768 
-1.42411 -1.50354 -0.620601 -0.995547 -0.437093 -0.438809 -0.992144 -0.975516 -1.38778e-17 
-0.35642 1.38778e-17 -2.23147 -2.41631 -2.10999 -1.80774 -1.44568 -1.82922 -1.43633 
-1.40663 -0.950371 -0.54034 -0.470755 -0.238233 -0.128331 0 -1.38778e-17 0 
0 0 0 -0.114996 0 0 -0.281669 -0.40976 -0.68623 