# vtk DataFile Version 4.2
3D Slicer output. SPACE=LPS
ASCII
DATASET POLYDATA
POINTS 799 float
69.4603 14.7887 -64.9351 69.1905 14.5023 -65.0438 69.0314 14.5002 -64.9164 
69.4723 14.9929 -64.7104 70.4927 14.867 -64.82 69.0383 14.3297 -64.9717 
68.528 14.9384 -64.0321 68.6666 14.1696 -64.4996 68.7653 14.5068 -64.4523 
70.818 14.9006 -64.7541 71.5476 15.3966 -64.0314 69.2341 15.5358 -63.8306 
69.8147 15.9921 -63.1279 68.4849 14.8906 -63.9577 68.5401 15.3893 -63.682 
71.5509 14.8639 -64.5938 72.1506 14.8935 -64.4775 72.4263 14.8795 -64.4001 
72.2179 15.4505 -63.7287 71.3142 15.9199 -63.2163 68.593 15.7942 -63.0456 
69.9947 16.2991 -62.5027 68.5047 15.3101 -63.6548 68.5018 15.3843 -63.5785 
68.5102 15.3541 -63.6081 73.1768 14.7211 -64.1678 73.3325 14.6844 -64.1147 
73.2531 15.429 -63.0368 73.1286 15.9734 -61.9367 72.0079 16.3245 -62.0732 
70.6965 16.7801 -61.3483 68.5597 15.757 -63.0202 68.5431 15.7917 -62.9695 
68.5948 16.3862 -61.7603 69.4644 16.7594 -61.1885 73.5274 14.6121 -64.0665 
74.0883 14.6625 -63.5314 73.5805 15.5841 -62.3475 74.1145 15.4832 -61.7879 
72.7174 16.3918 -61.0946 71.2536 16.7945 -61.1492 70.3153 17.1304 -59.7401 
68.4834 16.236 -61.9048 68.442 16.3444 -61.6875 68.6306 16.8326 -60.3014 
74.1121 14.3248 -63.8754 74.9997 13.7145 -63.5591 75.4289 13.5804 -63.2295 
74.8482 14.7035 -62.3585 75.3936 14.5811 -61.4525 73.709 15.9071 -61.1094 
74.6853 15.3878 -60.7284 71.973 16.8002 -60.121 73.2119 16.3021 -59.6293 
69.0497 17.0573 -58.8647 69.7118 17.1884 -58.8199 71.9252 16.7967 -59.2437 
69.9615 17.176 -58.3033 68.4367 16.6112 -60.7782 68.4435 16.7311 -60.3182 
68.409 16.8127 -59.897 75.3106 13.4864 -63.4297 75.5136 13.2902 -63.3556 
75.8645 12.8887 -63.1915 75.9523 13.0978 -62.8853 75.8517 13.726 -62.2883 
76.4815 13.1508 -61.6171 76.3146 13.7166 -61.0539 75.8052 14.5244 -59.9373 
74.313 15.7111 -59.874 72.8163 16.3546 -58.5133 73.6959 15.9327 -58.4605 
68.38 16.8519 -59.352 68.3398 16.7973 -57.8813 68.9863 16.999 -57.7076 
71.4462 16.7652 -57.8304 72.2719 16.3827 -57.5456 70.1376 16.7961 -56.6405 
70.7739 16.7674 -56.996 76.2485 12.2225 -63.0852 76.7002 11.9301 -62.5767 
77.1727 12.4148 -60.5559 76.7996 13.2218 -60.3191 76.4113 13.8758 -59.5998 
75.8027 14.5423 -58.9188 74.6032 15.4734 -58.6324 73.0138 15.9639 -57.2796 
68.335 16.7896 -57.6934 69.3775 16.8343 -56.6961 68.5838 16.4125 -55.9528 
68.3246 16.4724 -56.5106 71.7046 16.3578 -56.5538 70.4383 16.4196 -55.7634 
76.396 11.9656 -63.0266 76.6613 11.0825 -63.1297 76.7747 10.545 -63.1805 
77.1493 9.92735 -62.7083 77.2089 11.836 -61.2602 77.2776 12.4027 -59.7266 
77.5976 11.5569 -59.4814 76.856 13.2654 -59.027 76.3301 13.7122 -57.7373 
75.4751 14.537 -57.6126 74.4529 15.0894 -57.1399 73.2918 15.499 -56.3474 
69.239 15.8387 -54.4831 70.2626 15.9353 -54.6372 68.3267 16.3817 -56.158 
68.4053 16.2036 -55.7259 68.594 16.0508 -55.2042 71.5512 15.9748 -55.4742 
76.8389 10.1256 -63.1998 77.0426 9.45754 -63.0491 77.6383 7.89285 -61.5424 
77.5997 9.81544 -61.4258 77.6234 10.9241 -60.4999 77.2425 12.3969 -58.5939 
76.8008 13.2125 -58.241 77.8346 9.85684 -59.4646 77.6508 11.1705 -58.3747 
76.012 13.6107 -56.9156 75.617 13.6066 -56.212 74.2894 14.6594 -55.8697 
71.5076 15.3231 -54.2138 73.3782 14.6321 -54.8328 68.9227 15.6916 -54.32 
68.9736 15.5813 -54.1468 69.7739 15.3247 -53.5501 70.4596 14.987 -53.0372 
76.907 9.44106 -63.2093 76.9519 8.06113 -63.1756 77.072 7.69024 -63.0391 
77.2833 7.42965 -62.5706 77.2206 5.75854 -61.7769 77.6364 6.58234 -60.4647 
77.8219 8.73504 -60.2721 77.2409 11.871 -57.5309 76.729 12.8735 -57.3656 
77.8041 9.11455 -58.7978 77.6357 10.1578 -57.7161 76.8319 12.3828 -57.026 
75.9304 13.026 -55.9394 74.25 13.8845 -54.6991 72.0938 14.7371 -53.761 
72.883 13.8106 -53.182 69.1253 15.2758 -53.6331 69.1919 15.0173 -53.0155 
69.2093 14.9277 -52.8702 71.359 14.5154 -52.7533 70.0001 14.4907 -51.8575 
76.948 7.86282 -63.1598 76.9603 7.60336 -63.1554 76.974 7.33212 -63.1352 
76.8873 6.37154 -63.0723 77.0844 6.38115 -62.7156 76.7514 4.82755 -62.2906 
76.7319 5.60105 -63.0147 76.8673 4.79705 -61.6117 77.2966 5.64174 -60.8655 
77.6369 6.52094 -59.6333 77.8131 7.94415 -59.4594 77.1583 11.0779 -56.6387 
77.6449 8.57594 -57.757 76.6705 11.1128 -55.6486 76.3414 11.9559 -55.5419 
75.5378 12.4885 -54.7701 74.4865 13.158 -54.1011 73.7706 13.2424 -53.4382 
74.1354 12.2539 -52.7843 72.247 13.7019 -52.1298 73.2043 12.7616 -51.8916 
69.2245 14.8233 -52.6246 71.4609 14.0738 -51.8013 70.5688 14.111 -50.7391 
69.4438 14.5466 -51.6163 69.4471 14.4391 -50.3793 76.7209 5.96353 -63.1958 
76.5173 5.18932 -62.9212 76.3631 4.71469 -62.9127 76.0338 3.86522 -62.8275 
76.037 3.56485 -62.5773 76.8166 4.38174 -61.227 76.5855 5.61517 -63.2174 
76.8845 4.40115 -60.3832 77.165 5.22065 -59.5566 77.6495 6.97955 -58.7585 
77.227 5.62124 -58.9031 76.7633 9.64264 -55.6137 77.1744 6.65714 -57.5749 
77.1682 8.52464 -56.6429 75.8878 10.7638 -54.2928 74.8487 11.2267 -53.0598 
74.7526 12.1298 -53.5772 73.9788 11.5408 -51.6926 73.8278 12.1189 -52.1156 
72.8555 12.874 -50.7992 69.2629 14.6994 -52.1207 71.5625 13.7863 -50.161 
69.4169 14.5135 -49.3781 69.2892 14.5742 -51.7755 69.339 14.4625 -51.5361 
69.3338 14.4417 -51.3651 69.2798 14.3197 -50.4504 69.0172 14.4997 -49.4018 
75.8151 3.1472 -62.7802 75.7153 2.86579 -62.744 75.9117 2.66555 -61.7875 
76.0085 2.68214 -61.0304 76.37 3.52724 -59.7752 76.7918 4.39954 -59.399 
76.7609 4.76654 -58.5013 76.7095 5.64694 -57.568 76.4159 8.26814 -55.3321 
75.9339 9.35744 -54.3335 76.3858 5.98305 -56.5899 76.7354 7.41084 -56.2455 
75.2553 10.198 -53.3685 74.7912 10.6425 -52.7181 74.429 10.65 -51.9924 
73.4785 11.965 -50.4643 73.9754 10.9904 -50.9293 72.9869 12.5944 -50.0382 
70.7355 14.3619 -48.5954 71.5711 13.8784 -49.0243 71.9837 13.5321 -49.4807 
68.8177 14.7213 -48.4987 70.3631 14.6831 -47.9369 69.014 14.4575 -49.5293 
68.9825 14.463 -49.4212 68.926 14.5063 -49.3252 75.4643 2.15064 -62.7365 
75.2754 1.87874 -62.7061 75.3121 1.84634 -62.0363 75.295 1.88734 -60.5447 
75.8899 2.69305 -59.9599 75.8845 3.11335 -59.0869 75.4687 3.11124 -58.4018 
76.159 4.47964 -57.6844 75.9337 5.62625 -56.1884 75.6859 6.98475 -54.7935 
75.6265 8.08394 -54.2096 74.8937 8.37824 -52.9494 74.8828 9.16895 -52.7303 
74.5057 9.48184 -51.8643 74.3886 9.50525 -51.3516 74.2614 9.85275 -50.205 
73.6167 11.5359 -49.5082 73.2624 12.4146 -48.9833 73.4906 11.9631 -49.3416 
74.0398 10.4455 -49.9406 73.9185 11.1204 -49.3796 71.5258 14.0819 -48.3301 
72.5143 13.4901 -48.227 68.6049 14.6681 -48.5633 68.3828 14.8526 -48.2018 
69.4551 14.9196 -47.257 69.8456 14.9652 -47.3246 70.2464 14.9527 -47.357 
71.5111 14.64 -47.2501 75.1643 1.48996 -62.7293 75.1376 1.35934 -62.5821 
75.0983 1.44294 -61.116 74.9619 1.67854 -60.0065 74.9193 2.09615 -59.1339 
74.3651 1.96465 -58.737 74.4297 2.96775 -57.381 75.3908 4.42854 -56.6655 
74.8799 6.16904 -54.3567 74.43 4.71465 -55.2113 74.3002 5.35675 -54.3818 
74.818 7.26965 -53.4119 74.4685 8.55384 -51.8785 74.3295 8.17094 -51.4681 
74.2865 8.72154 -50.3419 74.2994 8.45835 -49.3752 74.3151 9.79434 -49.319 
73.7922 11.596 -48.878 73.4285 12.8251 -47.8233 74.1271 10.7556 -48.9458 
74.3497 10.2698 -48.6747 72.4304 13.9181 -47.5266 73.3192 13.2524 -47.4036 
68.2729 14.9122 -48.0137 69.4418 15.2954 -46.2617 69.0255 15.2391 -46.6249 
70.3096 15.7987 -45.8903 70.9802 15.3565 -46.3128 72.9155 14.5884 -46.0397 
75.1096 1.32469 -62.7324 74.9198 0.927397 -62.7518 74.6039 0.378164 -62.7666 
74.7032 0.843746 -61.8832 73.8563 0.170444 -61.3884 73.8493 0.529346 -60.5881 
73.8843 1.25304 -59.3625 73.0978 1.78225 -58.1213 73.3659 2.98264 -56.447 
74.0636 3.91235 -55.7444 73.6784 5.59155 -53.1509 74.1379 6.73644 -52.5622 
73.0519 3.95744 -54.7114 73.2322 4.77385 -53.7352 73.8798 6.80185 -51.9403 
73.8137 7.09344 -50.7552 74.1831 8.16864 -50.1023 73.811 7.10175 -49.9973 
73.8878 6.87244 -49.0002 74.2857 7.08475 -48.1867 74.4251 8.56874 -48.4676 
74.4474 9.16084 -48.4548 74.197 11.3545 -48.093 74.1671 12.5335 -46.9187 
74.4965 10.3251 -48.0727 73.7587 13.8213 -46.0042 68.2498 14.936 -47.9609 
69.4394 15.6833 -45.6236 69.0296 15.7832 -45.5776 68.1477 15.7645 -46.1418 
68.1841 15.3338 -47.1188 71.1039 16.3109 -44.8882 69.8303 16.2253 -45.3003 
72.283 15.8973 -44.7236 73.1995 15.8561 -44.1161 74.0251 14.3678 -45.2309 
74.4765 0.188051 -62.7912 74.3287 0.103546 -62.4487 73.2354 -0.801956 -62.1618 
73.1542 0.0445442 -60.8203 72.6818 0.460545 -59.8852 73.1996 1.10445 -59.1876 
71.099 1.23164 -58.0732 71.5716 1.98864 -56.9827 71.5861 2.55474 -55.9036 
71.8422 3.26315 -54.6825 73.28 5.68654 -52.1926 73.4297 6.04354 -51.7106 
71.6558 3.72004 -53.6464 71.9915 4.30804 -52.828 73.4088 6.32734 -51.0265 
73.4525 6.37494 -49.8259 73.3009 5.19355 -48.0236 73.7893 5.88375 -47.9644 
74.6204 6.85905 -47.3474 75.1132 8.82644 -47.1307 74.8417 9.15355 -47.5448 
74.5229 11.8274 -46.9619 74.6407 13.13 -45.6923 75.2212 11.9588 -45.8156 
74.7624 10.7815 -47.2381 68.1866 15.0059 -47.8564 69.0091 16.3216 -44.8603 
68.4493 16.382 -44.6776 68.1658 16.0608 -45.5146 67.9691 15.7821 -46.1218 
68.0664 15.8712 -45.9035 67.9125 15.6211 -46.4951 67.9319 15.2071 -47.4215 
70.7522 17.2743 -43.6804 71.2663 17.1011 -43.7001 69.9095 17.3239 -43.5339 
73.1847 17.101 -42.5005 74.0392 15.3163 -44.0068 75.947 13.6652 -43.4296 
74.8711 14.5871 -43.9037 73.9058 -0.82446 -62.8538 73.7073 -1.09477 -62.8963 
73.2374 -1.35276 -62.6864 72.5153 -1.23635 -62.2712 73.6491 -1.18017 -62.921 
72.4056 -0.689457 -61.5546 70.4294 -0.179756 -60.3584 70.35 0.692345 -58.9115 
68.7236 1.00264 -58.3815 69.4017 1.25385 -57.7682 70.3342 1.74884 -57.019 
70.2149 2.07954 -56.2638 70.398 2.43015 -55.5332 70.6714 2.90535 -54.6742 
69.7703 3.02684 -54.0007 69.854 3.58455 -52.7224 72.3272 4.83405 -52.1919 
72.4435 5.12094 -50.9423 72.9339 5.62804 -50.7248 70.6285 3.78495 -52.6213 
71.2141 4.22025 -51.7779 73.0239 5.66335 -49.7986 72.9919 5.45145 -49.1004 
72.7992 4.75195 -48.0417 73.36 4.67514 -47.31 74.1409 4.78685 -46.5246 
74.8517 5.96804 -46.5112 75.2011 7.37314 -46.6368 75.4014 8.82825 -46.5067 
[...]
POINT_DATA 799
SCALARS scalars float
LOOKUP_TABLE default
2.77556e-17 0 -0.368096 -0.422505 0 -5.55112e-17 -0.109844 0 5.55112e-17 
-2.77556e-17 -0.767424 -0.689541 -1.27486 0 -0.0851371 -5.55112e-17 -5.55112e-17 0 
-0.910313 -1.75833 -0.0622368 -1.5052 0 0 0 -2.77556e-17 0 
-1.31247 -2.53903 -2.76326 -2.27802 -6.93889e-18 0 -0.16312 -1.05557 2.77556e-17 
-0.474121 -1.96124 -2.39259 -3.51685 -2.82376 -1.92262 0 -1.38778e-17 -0.210501 
2.77556e-17 2.77556e-17 -0.237628 -1.52643 -2.27283 -3.19858 -3.28804 -3.53351 -4.74571 
-0.732058 -1.40605 -3.5403 -1.66539 0 0 0 0 2.77556e-17 
0 -0.380427 -1.17302 -1.64347 -2.33633 -3.634 -4.21622 -4.49666 -5.42491 
2.77556e-17 -4.16334e-17 -0.696052 -3.10416 -3.941 -1.82344 -2.43685 -5.55112e-17 -0.517341 
-2.62012 -2.93182 -3.7527 -4.59038 -5.25553 -4.7211 -1.38778e-17 -1.08194 -0.266215 
-2.77556e-17 -3.37752 -2.01174 -5.55112e-17 -2.77556e-17 -2.77556e-17 -0.580443 -1.90902 -3.43609 
-3.71078 -4.18201 -5.49101 -5.84376 -6.22464 -4.81142 -0.374293 -1.39368 1.38778e-17 
0 0 -2.87448 -1.38778e-17 -0.210478 -1.76454 -1.92825 -2.78461 -4.52615 
-4.92566 -3.87073 -4.80818 -6.27365 -6.98565 -5.63687 -2.45105 -4.46995 0 
0 -0.640512 -1.25973 2.77556e-17 0 -0.167001 -0.670845 -1.43459 -2.79514 
-3.04876 -5.54592 -5.7259 -4.48775 -5.55521 -6.02363 -7.15431 -5.40774 -2.98244 
-3.83902 5.55112e-17 0 2.77556e-17 -2.15936 -0.727635 0 2.77556e-17 -2.77556e-17 
0 -0.499147 -0.806256 -0.410296 -1.47591 -2.3432 -3.61545 -3.80785 -6.44876 
-5.47064 -7.40375 -7.47812 -7.03228 -5.69651 -4.88432 -5.48877 -3.11577 -4.30569 
0 -2.22294 -1.34726 -0.144571 -0.260712 -2.77556e-17 0 -5.55112e-17 -2.77556e-17 
-0.280017 -1.79606 0 -2.63283 -3.59115 -4.47547 -4.29086 -7.59865 -5.62963 
-6.54002 -7.98408 -6.64143 -6.22493 -5.55226 -5.17258 -3.91414 0 -2.47393 
-0.443585 2.77556e-17 -1.38778e-17 -1.38778e-17 0 -0.0555131 1.38778e-17 5.55112e-17 -1.01572 
-1.76555 -3.07133 -3.57586 -4.50065 -5.58552 -7.85623 -8.82415 -6.60758 -6.93488 
-7.59829 -6.84868 -6.4558 -4.91716 -5.84723 -4.24259 -1.94429 -2.68988 -3.07454 
-0.226499 -1.84916 0 0 -6.93889e-18 0 0 -0.672239 -2.16003 
-2.79514 -3.67555 -4.35051 -5.2114 -6.90463 -8.00499 -8.36509 -7.75402 -7.85499 
-7.26351 -7.13566 -6.84409 -5.3994 -4.75389 -5.09839 -6.31776 -5.89862 -2.80643 
-3.88023 -2.77556e-17 1.38778e-17 -1.40656 -1.70786 -2.03662 -3.18222 1.38778e-17 -0.155131 
-1.58975 -2.70364 -3.59074 -4.0561 -5.46041 -6.22389 -6.85089 -6.22422 -6.043 
-7.1183 -7.47459 -7.12374 -7.54073 -6.96854 -7.03915 -5.62033 -5.03006 -6.34699 
-6.8597 -3.95307 -4.94404 1.38778e-17 -1.52629 -1.26453 -2.06534 -2.90579 -4.8727 
-1.38778e-17 0 0 -0.854517 -1.5265 -2.30724 -3.51452 -4.99345 -5.48865 
-5.92554 -5.30861 -6.16584 -4.64277 -4.72899 -5.95056 -6.11495 -7.05352 -6.07123 
-5.39594 -5.33036 -6.72435 -7.23685 -6.24687 -6.08214 -7.05847 -5.80713 5.55112e-17 
-1.21674 -0.799482 -0.175542 -0.354029 -2.60488 -1.41041 -3.81304 -4.72944 -5.90297 
-2.77556e-17 -0.366834 -0.975475 -2.31529 -3.41511 -3.89702 -4.18782 -4.11905 -3.65375 
-3.43096 -4.89417 -5.18191 -2.99204 -3.27115 -5.33884 -5.32246 -3.40999 -4.08907 
-4.93168 -6.7473 -7.06871 -6.634 -6.8397 -7.61028 -7.23011 -2.77556e-17 -0.524806 
0 2.77556e-17 0 0 2.77556e-17 0 -2.21532 -2.71649 -1.37832 
-4.66541 -5.66521 -8.03174 -6.66656 1.38778e-17 -1.38778e-17 -0.426841 -1.16607 0 
-1.94115 -4.01376 -3.66764 -1.98016 -2.50102 -3.03654 -2.59393 -2.43548 -2.33192 
-1.2591 -1.04368 -3.68751 -3.95733 -4.63336 -1.81714 -2.43993 -4.663 -4.07763 
-2.89526 -2.6826 -2.73529 -3.98081 -5.35143 -6.68497 -8.0144 -9.11958 -9.47499 
-0.508774 0 -1.79223 -2.97733 -1.3895 -0.907099 -4.62165 -5.79524 -3.68268 
-5.63678 -6.29035 -8.87286 -7.80561 0 0 -0.430409 -1.40186 -2.14255 
-2.83348 -2.63815 -2.42208 -2.30037 -0.773549 -1.2682 -1.1577 -1.67109 -1.14149 
5.55112e-17 5.55112e-17 -2.77556e-17 2.77556e-17 -0.32361 -1.97184 -1.2945 -3.15239 -3.68141 
-3.04598 -1.49486 -1.65363 -2.27161 -2.24289 -2.93607 -4.0153 -5.25698 -6.59448 
-7.42686 -7.92591 -8.43122 -7.49347 -8.64422 -7.49305 -7.78002 -0.110829 -0.080693 
2.77556e-17 -1.76913 -3.45757 -1.26747 -0.876125 -3.22898 -3.29496 -4.91085 -3.53659 
-6.71845 -7.14143 -7.65933 2.77556e-17 0 0 -0.447397 -1.18669 -2.47391 
-1.29008 -3.15844 -1.79485 -2.17564 0 -1.38778e-17 2.77556e-17 8.32667e-17 -1.11022e-16 
-5.55112e-17 -5.55112e-17 0 5.55112e-17 0 2.77556e-17 2.77556e-17 0 -5.55112e-17 
-1.44376 -2.48593 -2.10186 0 -0.696203 -0.612581 -1.26606 -0.825138 -0.588413 
-1.54987 -1.59029 -2.34423 -3.87398 -3.25076 -5.04917 -2.19392 -5.58003 -6.3088 
-6.71392 -7.04697 -7.11347 -6.0828 -6.10548 -6.03188 -0.0275706 0 0 
0 0 -3.00928 -1.60836 -0.820759 -0.921327 -0.349336 -0.865084 -1.48672 
-2.92982 -1.66427 -2.60311 -2.73606 -1.93672 -4.48626 -5.93709 -6.787 -2.77556e-17 
1.38778e-17 -5.55112e-17 -6.93889e-17 -0.739002 -0.330253 -0.188108 1.04083e-17 -0.749511 6.93889e-17 
1.11022e-16 -0.351093 -1.29118 0 -0.0386511 -0.587201 0 -2.77556e-17 -0.507614 
-1.26865 -0.288862 -0.325002 -0.89837 -0.500744 -0.617189 -4.71312 -3.3743 -4.31345 
-2.24586 -1.44696 -6.29773 -4.98489 -5.12087 -5.50353 -6.352 -4.85191 -5.50049 
-5.08254 0 0 0 -2.2329 -1.37356 -0.590234 -0.469523 -0.165457 
-2.77556e-17 1.38778e-17 -0.242324 -0.890268 0 -5.55112e-17 -1.4951 -0.755503 -1.22371 
-2.6613 -1.67573 -1.77746 -1.24523 -4.02632 2.77556e-17 1.38778e-17 -4.16334e-17 0 
-1.38778e-17 0 -6.93889e-18 1.38778e-17 -4.16334e-17 2.77556e-17 0 0 -2.77556e-17 
-0.255318 0 0 0 -0.846741 0 2.77556e-17 2.77556e-17 2.77556e-17 
2.77556e-17 -0.165986 2.77556e-17 1.38778e-17 -5.30545 -3.36762 -3.10314 -3.1259 -2.13311 
-1.73519 -3.38743 -4.72041 -3.70224 -4.23403 -4.2866 -4.47785 -3.88335 -4.25892 
-0.263658 -2.77556e-17 -2.77556e-17 -1.38778e-17 1.38778e-17 1.38778e-17 2.77556e-17 -1.38778e-17 -2.77556e-17 
2.77556e-17 -4.16334e-17 -6.93889e-18 -0.166341 -2.08167e-17 -0.209621 -6.93889e-17 -3.01218 -2.27576 
-0.889249 -0.71462 -0.158262 -0.834263 -1.92198 -0.371939 -1.38778e-17 1.38778e-17 -0.680361 
0 -1.23865 0 0 -3.69901 -2.38973 -2.72558 -1.78839 -2.20097 
-2.44274 -3.08482 -2.85305 -3.72205 -2.17245 -3.10912 -3.26995 -2.73445 -2.97694 
0 -2.77556e-17 -2.77556e-17 -1.38778e-17 -1.04083e-17 0 1.38778e-17 -2.77556e-17 -0.0869719 
0 -0.30405 -0.839244 0 0 0 -0.0765726 -2.04145 -2.77556e-17 
2.77556e-17 0 -0.465166 -2.20372 -1.52788 -1.32039 -2.13557 -0.173544 -0.861869 
-2.313 -1.84999 -1.91474 -1.8909 -2.13391 -1.9311 -0.425865 1.38778e-17 0 
0 0 -2.77556e-17 -0.160867 -0.727176 -1.24622 0 6.93889e-18 -1.23866 
-0.208986 -1.99557 -1.09407 -0.827178 -1.33946 0 -0.0504884 0 -2.25514e-17 
-0.116174 -1.77052 -0.548371 -0.723757 -0.958871 -0.729351 -0.525354 -0.890339 -0.504239 
2.42861e-17 0 -1.38778e-17 1.38778e-17 1.38778e-17 0 -0.326863 -0.077 -0.685892 
-0.40359 0 2.77556e-17 2.77556e-17 -0.246829 -5.55112e-17 1.38778e-17 0 0 
0 -0.52012 -2.77556e-17 -0.430095 0 -1.38778e-17 -0.294261 -4.16334e-17 1.38778e-17 
-0.390669 4.16334e-17 0 5.55112e-17 -0.258606 5.55112e-17 0 -1.38778e-17 -6.93889e-18 
-0.140181 0 0 0 -0.320092 -2.77556e-17 0 -2.77556e-17 2.77556e-17 
2.77556e-17 2.77556e-17 0 0 -1.38778e-17 0 -2.77556e-17 0 2.08167e-17 
1.38778e-17 -1.38778e-17 0 -1.38778e-17 0 0 -2.77556e-17 
