# vtk DataFile Version 4.2
3D Slicer output. SPACE=LPS
ASCII
DATASET POLYDATA
POINTS 22975 float
22.3437 -106.618 -2.14099 22.3272 -106.612 -2.16662 22.3519 -106.612 -2.14452 
22.3519 -106.619 -2.13188 22.2738 -106.591 -2.25067 22.3519 -106.551 -2.25067 
22.4067 -106.631 -2.06511 22.4424 -106.612 -2.06511 22.1939 -106.573 -2.35962 
22.1664 -106.546 -2.43622 22.3519 -106.439 -2.43621 22.3715 -106.426 -2.43621 
22.5375 -106.426 -2.26164 22.5375 -106.434 -2.25067 22.5375 -106.56 -2.06511 
22.4274 -106.636 -2.03441 22.5038 -106.657 -1.94522 22.5375 -106.665 -1.90342 
22.5375 -106.612 -1.98517 22.1664 -106.567 -2.3968 22.1362 -106.56 -2.43622 
22.0947 -106.544 -2.50792 22.1664 -106.443 -2.62177 22.1959 -106.426 -2.62177 
22.3519 -106.426 -2.45738 22.5375 -106.3 -2.43621 22.5479 -106.426 -2.25067 
22.723 -106.426 -2.07855 22.723 -106.437 -2.06511 22.6713 -106.612 -1.87955 
22.5589 -106.67 -1.87955 22.0226 -106.518 -2.62177 22.1664 -106.426 -2.65258 
22.3519 -106.321 -2.62177 22.5375 -106.241 -2.51501 22.6048 -106.241 -2.43622 
22.723 -106.286 -2.25067 22.723 -106.241 -2.3049 22.738 -106.426 -2.06511 
22.723 -106.584 -1.87955 22.71 -106.688 -1.74064 22.723 -106.689 -1.72877 
22.723 -106.612 -1.83987 22.0197 -106.516 -2.62823 22.0165 -106.426 -2.80732 
22.1664 -106.337 -2.80732 22.3519 -106.241 -2.74098 22.4475 -106.241 -2.62177 
22.5375 -106.16 -2.62177 22.723 -106.13 -2.43621 22.723 -106.055 -2.52537 
22.9086 -106.294 -2.06511 22.7746 -106.241 -2.25067 22.9086 -106.426 -1.92062 
22.9086 -106.463 -1.87953 22.7682 -106.688 -1.69656 22.9086 -106.612 -1.70456 
21.9969 -106.489 -2.70524 21.9808 -106.445 -2.80732 21.9808 -106.426 -2.84501 
21.9808 -106.351 -2.99287 22.1664 -106.241 -2.97655 22.2976 -106.241 -2.80732 
22.3519 -106.196 -2.80732 22.5375 -106.055 -2.76133 22.6451 -106.055 -2.62178 
22.7992 -106.055 -2.43622 22.9086 -106.118 -2.25067 22.723 -105.971 -2.62178 
22.8091 -105.87 -2.62177 22.9086 -106.241 -2.12149 22.9702 -106.241 -2.06512 
22.958 -106.426 -1.87956 23.0941 -106.317 -1.87957 22.9231 -106.612 -1.694 
23.0941 -106.499 -1.69398 22.7725 -106.688 -1.69398 22.9086 -106.621 -1.69398 
21.9808 -106.47 -2.75899 21.9662 -106.452 -2.80732 21.9586 -106.439 -2.8405 
21.9531 -106.426 -2.87258 21.9303 -106.377 -2.99287 21.9232 -106.352 -3.05049 
21.9808 -106.256 -3.17842 22.0042 -106.241 -3.17842 22.1532 -106.241 -2.99287 
22.1664 -106.232 -2.99287 22.3519 -106.075 -2.99287 22.373 -106.055 -2.99287 
22.5031 -106.055 -2.80732 22.5375 -106.019 -2.80732 22.6655 -105.87 -2.80732 
22.723 -105.87 -2.7313 22.9086 -105.939 -2.43622 22.9086 -106.055 -2.3176 
22.9736 -106.055 -2.25067 22.9086 -105.87 -2.50396 22.805 -105.684 -2.80732 
22.9086 -105.745 -2.62178 23.0941 -106.124 -2.06512 23.0941 -106.241 -1.95427 
23.0941 -106.426 -1.76882 23.1781 -106.241 -1.87956 23.1879 -106.426 -1.69402 
22.9155 -106.684 -1.59684 22.9937 -106.687 -1.5362 23.0941 -106.612 -1.56895 
23.1828 -106.612 -1.50846 22.9086 -106.685 -1.60199 21.9028 -106.297 -3.17842 
21.9808 -106.241 -3.20658 22.1664 -106.124 -3.17842 22.3519 -106.055 -3.02427 
22.5362 -105.87 -2.99287 22.5375 -105.87 -2.99094 22.6722 -105.684 -2.99287 
22.723 -105.684 -2.91935 22.723 -105.795 -2.80732 22.9689 -105.87 -2.43622 
23.0941 -105.928 -2.25067 23.0941 -106.055 -2.13107 22.723 -105.606 -2.99287 
22.786 -105.499 -2.99287 22.9086 -105.525 -2.80732 22.9086 -105.684 -2.67744 
22.9546 -105.684 -2.62177 23.0941 -105.716 -2.43621 23.1611 -106.055 -2.06512 
23.2797 -106.055 -1.95428 23.2797 -106.241 -1.79446 23.2797 -106.141 -1.87956 
23.2797 -106.352 -1.69401 23.2797 -106.426 -1.6246 23.0265 -106.696 -1.50845 
23.0941 -106.665 -1.50846 23.2797 -106.724 -1.32291 23.2797 -106.612 -1.44401 
23.2797 -106.549 -1.50846 21.9004 -106.29 -3.19438 21.8991 -106.241 -3.29244 
21.9808 -106.155 -3.36398 22.1664 -106.055 -3.2985 22.2481 -106.055 -3.17842 
22.3519 -105.95 -3.17842 22.4186 -105.87 -3.17842 22.5375 -105.868 -2.99287 
22.5375 -105.707 -3.17842 22.553 -105.684 -3.17842 22.6634 -105.499 -3.17842 
23.0941 -105.87 -2.30266 23.1429 -105.87 -2.25067 23.2797 -105.924 -2.06511 
22.723 -105.499 -3.08654 22.9086 -105.499 -2.82769 22.723 -105.38 -3.17842 
22.8819 -105.313 -2.99287 22.9086 -105.313 -2.95707 22.9243 -105.499 -2.80732 
23.0798 -105.499 -2.62177 23.0941 -105.684 -2.46336 23.118 -105.684 -2.43622 
23.2797 -105.692 -2.25067 23.3632 -106.055 -1.87956 23.4652 -105.943 -1.87956 
23.4063 -106.241 -1.69401 23.4652 -106.055 -1.79414 23.446 -106.426 -1.50846 
23.4652 -106.241 -1.64935 23.049 -106.697 -1.4875 23.0941 -106.726 -1.42224 
23.1575 -106.772 -1.32291 23.0941 -106.726 -1.42231 23.4652 -106.612 -1.32981 
23.4652 -106.62 -1.32291 23.1771 -106.797 -1.27981 23.2797 -106.797 -1.22644 
23.4652 -106.797 -1.14173 21.89 -106.207 -3.36398 21.8769 -106.156 -3.46786 
21.9808 -106.055 -3.54012 22.1189 -106.055 -3.36398 22.3519 -105.87 -3.28864 
22.3053 -105.87 -3.36397 22.1664 -106.015 -3.36397 22.4452 -105.684 -3.36397 
22.5375 -105.684 -3.20436 22.5375 -105.53 -3.36398 22.554 -105.499 -3.36397 
22.6428 -105.313 -3.36398 23.2797 -105.87 -2.10944 23.3243 -105.87 -2.06511 
23.4652 -105.87 -1.93373 23.0262 -105.313 -2.80732 22.723 -105.313 -3.22801 
22.7539 -105.313 -3.17842 22.9086 -105.253 -2.99288 23.0941 -105.475 -2.62177 
23.0941 -105.499 -2.60544 23.2401 -105.499 -2.43621 23.2797 -105.684 -2.25645 
23.2797 -105.499 -2.39088 23.2851 -105.684 -2.25067 23.4652 -105.688 -2.06511 
23.525 -105.87 -1.87956 23.6508 -105.87 -1.77261 23.4652 -106.183 -1.69402 
23.5892 -106.055 -1.69402 23.6508 -105.988 -1.69402 23.4652 -106.411 -1.50846 
23.4652 -106.426 -1.49548 23.6508 -106.25 -1.50846 23.6508 -106.241 -1.51508 
23.6508 -106.055 -1.64777 23.4768 -106.612 -1.32291 23.4745 -106.797 -1.13736 
23.2128 -106.838 -1.19434 23.2426 -106.875 -1.13736 23.2797 -106.866 -1.13736 
23.4652 -106.802 -1.13736 21.8672 -106.117 -3.54588 21.972 -106.055 -3.54952 
21.9808 -106.05 -3.54952 22.1664 -105.895 -3.54952 22.3519 -105.812 -3.36397 
22.3519 -105.684 -3.52934 22.1892 -105.87 -3.54952 22.4539 -105.499 -3.54952 
22.5375 -105.499 -3.39433 22.5375 -105.327 -3.54952 22.5437 -105.313 -3.54952 
22.7159 -105.127 -3.36397 22.723 -105.127 -3.35161 23.6508 -105.707 -1.87956 
22.9618 -105.127 -2.99287 23.0941 -105.171 -2.80732 23.0941 -105.313 -2.72714 
22.8298 -105.127 -3.17842 22.9086 -105.127 -3.06491 23.1835 -105.313 -2.62178 
23.2797 -105.43 -2.43621 23.4093 -105.499 -2.25067 23.4652 -105.684 -2.06806 
23.4682 -105.684 -2.06512 23.7534 -105.87 -1.69402 23.8363 -105.768 -1.69402 
23.8363 -105.684 -1.74267 23.8363 -105.87 -1.63452 23.6508 -106.426 -1.37137 
23.6508 -106.487 -1.32291 23.6607 -106.241 -1.50846 23.8363 -106.073 -1.50846 
23.8363 -106.055 -1.51999 23.6508 -106.612 -1.21801 23.6508 -106.706 -1.13736 
23.4652 -106.957 -0.951828 23.6508 -106.797 -1.05216 23.2524 -106.883 -1.11728 
23.2797 -106.905 -1.07777 23.2916 -106.914 -1.06194 23.3736 -106.972 -0.95181 
21.8658 -106.116 -3.54952 21.8625 -106.055 -3.65776 21.9808 -105.934 -3.73508 
22.1664 -105.87 -3.58538 22.3404 -105.684 -3.54952 22.3519 -105.667 -3.54952 
22.3519 -105.504 -3.73508 22.3551 -105.499 -3.73507 22.451 -105.313 -3.73507 
22.5375 -105.313 -3.56177 22.6168 -105.127 -3.54952 22.723 -105.107 -3.36398 
23.6508 -105.684 -1.89487 23.6682 -105.684 -1.87956 23.0941 -105.127 -2.83001 
23.0335 -104.942 -2.99287 23.0941 -104.942 -2.91912 23.1128 -105.127 -2.80732 
23.271 -105.127 -2.62177 22.779 -104.942 -3.36397 22.8958 -104.942 -3.17842 
22.9086 -104.942 -3.16035 23.2797 -105.313 -2.50994 23.2797 -105.127 -2.6118 
23.3447 -105.313 -2.43622 23.4652 -105.408 -2.25067 23.4652 -105.499 -2.1937 
23.5942 -105.499 -2.06512 23.9008 -105.684 -1.69402 24.0219 -105.684 -1.60611 
23.7984 -105.499 -1.87957 23.8363 -105.499 -1.8478 23.854 -106.055 -1.50846 
24.0205 -105.87 -1.50846 24.0219 -105.868 -1.50846 23.7323 -106.426 -1.32291 
23.8363 -106.241 -1.39569 24.0219 -106.055 -1.40215 23.8045 -106.612 -1.13736 
23.8363 -106.426 -1.26236 23.3938 -106.983 -0.93222 23.4652 -106.983 -0.91571 
23.6508 -106.903 -0.951828 23.8363 -106.818 -0.951815 23.8363 -106.797 -0.968927 
21.8553 -106.016 -3.72771 21.8553 -106.012 -3.73508 21.8537 -105.933 -3.86222 
21.9808 -105.87 -3.82747 22.0568 -105.87 -3.73508 22.1664 -105.761 -3.73508 
22.2314 -105.684 -3.73508 22.3519 -105.499 -3.74084 22.3519 -105.322 -3.92062 
22.3569 -105.313 -3.92062 22.4427 -105.127 -3.92062 22.5278 -105.127 -3.73507 
22.5375 -105.127 -3.71424 22.723 -104.942 -3.46483 22.679 -104.942 -3.54952 
22.5375 -105.101 -3.73508 22.591 -104.942 -3.73508 23.6508 -105.499 -2.01131 
22.9086 -104.901 -3.17842 22.9498 -104.756 -3.17842 23.0918 -104.756 -2.99287 
23.0941 -104.756 -2.99013 23.1862 -104.942 -2.80732 23.2452 -104.756 -2.80732 
23.2797 -105.107 -2.62177 22.8315 -104.756 -3.36398 22.9086 -104.756 -3.24012 
23.4361 -105.127 -2.43622 23.4652 -105.313 -2.30768 23.4652 -105.127 -2.40551 
23.5199 -105.313 -2.25067 23.6508 -105.408 -2.06512 24.0219 -105.508 -1.69402 
24.1663 -105.684 -1.50846 24.2074 -105.626 -1.50846 24.2074 -105.499 -1.56468 
23.8363 -105.439 -1.87956 24.0219 -105.499 -1.69878 24.0219 -105.87 -1.50754 
24.2074 -105.87 -1.38944 23.8363 -106.345 -1.32291 23.9618 -106.241 -1.32291 
24.0219 -106.187 -1.32291 24.1587 -106.055 -1.32291 24.2074 -106.003 -1.32291 
23.8363 -106.612 -1.12089 23.8363 -106.592 -1.13736 24.0219 -106.464 -1.13736 
24.0219 -106.426 -1.16342 23.4334 -107.002 -0.890066 23.4652 -107.015 -0.869545 
23.5522 -107.037 -0.811571 23.6508 -106.983 -0.862961 23.8363 -106.983 -0.802094 
23.8768 -106.797 -0.951815 21.8501 -105.914 -3.8931 21.8906 -105.87 -3.92062 
21.9808 -105.802 -3.92062 22.1664 -105.684 -3.83678 22.248 -105.499 -3.92062 
22.3519 -105.313 -3.93008 22.3519 -105.131 -4.10617 22.3537 -105.127 -4.10618 
22.4319 -104.942 -4.10618 22.5119 -104.942 -3.92062 22.5375 -104.942 -3.85949 
22.723 -104.781 -3.54952 22.6415 -104.756 -3.73508 22.9953 -104.571 -3.17842 
23.0941 -104.748 -2.99288 23.2797 -104.942 -2.69745 23.2797 -104.756 -2.76691 
[...]
POINT_DATA 22975
SCALARS scalars float
LOOKUP_TABLE default
0 0 -0.0109042 0 0 -0.0796091 3.46945e-18 -0.0374748 3.46945e-18 
-0.02915 -0.219457 -0.240801 -0.290012 -0.280994 -0.133739 0 -1.73472e-18 0 
-0.0703024 3.46945e-18 3.46945e-18 -3.46945e-18 -0.159061 -0.191703 -0.235931 -0.433415 -0.293237 
-0.348634 -0.336042 -0.107549 -3.46945e-18 0 -0.174644 -0.369363 -0.500655 -0.517336 
-0.503313 -0.551795 -0.352934 -0.154933 0 0 -0.115367 -6.93889e-18 -0.0566101 
-0.230762 -0.43898 -0.483449 -0.594685 -0.670548 -0.751594 -0.545197 -0.567835 -0.373257 
-0.322747 -6.93889e-18 -0.112072 -6.93889e-18 -0.0163033 -0.0258741 -0.0582193 -0.270362 -0.392474 
-0.4623 -0.696897 -0.734699 -0.77214 -0.739716 -0.842597 -0.968542 -0.607017 -0.613231 
-0.367101 -0.495544 -0.111129 -0.261157 -3.46945e-18 -0.0994367 0 -1.73472e-18 0 
0 -6.93889e-18 0 -0.0937196 -0.118668 -0.257863 -0.273619 -0.510523 -0.538698 
-0.66569 -0.714142 -0.903727 -0.952562 -0.924457 -0.805502 -0.825284 -0.994496 -1.12474 
-1.12112 -0.744389 -0.593987 -0.354194 -0.584633 -0.358897 -6.93889e-18 6.93889e-18 -0.119306 
-0.151828 -6.93889e-18 6.93889e-18 -0.0988363 -0.309325 -0.517521 -0.773834 -0.775182 -0.989522 
-1.04225 -0.993695 -1.01234 -0.990365 -0.833673 -1.07555 -1.18892 -1.30209 -1.18322 
-1.19442 -1.20337 -0.819382 -0.80514 -0.586977 -0.702976 -0.460869 -0.380881 -6.93889e-18 
-0.0579504 -0.128781 -0.207534 -0.260815 -6.93889e-18 -6.93889e-18 -0.126914 -0.330266 -0.412272 
-0.552574 -0.649946 -0.776008 -0.836415 -0.861912 -1.05729 -1.0503 -1.05744 -0.962435 
-1.12178 -1.31456 -1.17564 -1.37717 -1.40489 -1.33021 -1.40945 -1.23484 -1.2419 
-1.24066 -0.806256 -0.942259 -0.614502 -0.822536 -0.461367 -0.636119 0 6.93889e-18 
0 3.46945e-18 -0.344877 -0.340103 6.93889e-18 -0.0826655 -0.227768 6.93889e-18 -6.93889e-18 
-0.157739 -0.283759 -0.578728 -0.52942 -0.342308 -0.742998 -0.844953 -0.904196 -0.935346 
-1.11665 -1.02739 -1.02169 -1.02114 -1.52402 -1.20666 -1.24076 -1.43515 -1.43635 
-1.41352 -1.45589 -1.25002 -1.46705 -1.24874 -1.22239 -1.0287 -1.06075 -0.691762 
-0.862098 -0.950301 -0.485213 -0.473271 -0.727856 -0.734642 -0.889385 -0.354102 -0.234354 
0 3.46945e-18 -0.0366021 -0.224172 0 -0.150415 -0.159359 -0.378465 -0.597901 
-0.64039 -0.409135 -0.821727 -0.916562 -0.989125 -1.00246 -1.28973 -1.29777 -1.22177 
-1.55551 -1.66544 -1.5905 -1.41606 -1.50001 -1.61462 -1.53264 -1.43904 -1.22689 
-1.22686 -1.1024 -1.23085 -1.30594 -1.14334 -0.604732 -0.56727 -0.741119 -0.982227 
-0.995668 -0.492659 -0.423424 -0.0758191 -0.336677 0 -3.46945e-18 3.46945e-18 0 
-1.38778e-17 -6.93889e-18 -0.193266 -0.386174 -0.627892 -0.646315 -0.705871 -0.711225 -0.894591 
-0.995234 -1.17483 -1.30798 -1.24507 -1.24917 -1.68894 -1.72912 -1.79004 -1.70764 
-1.81245 -1.45801 -1.5861 -1.5996 -1.64271 -1.81502 -1.66086 -1.53326 -1.43269 
-1.43003 -1.33476 -1.39883 -1.46602 -1.47723 -1.00728 -1.25406 -1.25645 -0.668692 
-0.864704 -1.12544 -0.588158 -0.752118 0 -0.0450829 -0.218407 -0.352122 -0.377099 
6.93889e-18 0 -6.93889e-18 -0.211684 -0.280397 -0.420848 -0.512412 -0.707725 -0.778121 
-0.787286 -0.965697 -1.06829 -1.07999 -1.39385 -1.34222 -1.09213 -1.23537 -1.43553 
-1.62283 -1.75094 -1.89598 -1.89826 -1.88237 -2.04913 -1.83344 -1.62241 -1.70688 
-1.84246 -1.63744 -1.83736 -1.63116 -1.52965 -1.54477 -1.48763 -1.55759 -1.65402 
-1.5344 -1.55256 -1.25497 -1.38554 -0.800037 -0.962318 -1.04256 -1.23086 -1.30102 
-0.596027 -0.618931 -0.786953 -0.829747 0 0 0 -0.114385 -0.147167 
-0.382328 0 -0.137669 -0.231644 -0.446289 -0.596283 -0.781696 -0.857328 -0.861124 
-1.03529 -1.13539 -1.16793 -1.48338 -1.39767 -1.91172 -1.90305 -1.97461 -2.08315 
-2.05624 -2.16279 -2.00387 -1.90606 -1.50513 -1.66486 -1.78241 -1.81962 -1.82137 
-1.62847 -1.63327 -1.65578 -1.55561 -1.51462 -1.70543 -1.64689 -1.76973 -1.80379 
-1.67669 -1.71622 -1.46112 -1.56426 -1.01035 -1.05655 -1.25564 -1.28275 -0.618207 
-0.836022 -3.46945e-18 0 -3.46945e-18 -0.0994695 -0.174335 -0.496973 -0.406372 -6.93889e-18 
-0.0881471 -0.0920393 -0.267894 -0.387128 -0.470017 -0.51173 -0.675005 -0.752376 -0.859043 
-0.939616 -0.953612 -1.08571 -1.19382 -1.21287 -1.49765 -1.29552 -1.45031 -1.55597 
-1.60596 -1.94114 -2.06778 -2.01161 -2.19084 -2.21159 -2.19648 -2.31702 -2.20857 
-2.36756 -2.03118 -2.20911 -2.02236 -1.90757 -1.8218 -1.93796 -1.82099 -1.83266 
-1.8374 -1.77432 -1.90828 -1.66918 -1.90805 -1.91205 -2.0573 -1.88147 -1.88511 
-1.47124 -1.69091 -1.50932 -0.966362 -1.0742 -1.17586 -1.3065 -0.85677 -0.65692 
-6.93889e-18 6.93889e-18 0 -0.228085 -1.73472e-18 -0.0131002 -0.197313 -0.464116 -0.389403 
0 0 6.93889e-18 -0.243521 -6.93889e-18 -0.0857036 -0.109618 -0.274826 -0.473191 
-0.531042 -0.580328 -0.591447 -0.650061 -0.657317 -0.81669 -0.928307 -1.03359 -1.23527 
-1.26481 -1.34398 -1.37275 -1.60319 -1.71225 -1.72184 -1.9553 -2.13317 -2.08887 
-2.21894 -2.26107 -2.36199 -2.4429 -2.36201 -2.40538 -2.37569 -2.20225 -2.3808 
-2.00865 -2.19504 -1.9024 -2.01905 -2.00838 -2.06857 -1.97454 -1.75251 -1.90547 
-1.86868 -1.87166 -2.03608 -1.91378 -1.9601 -1.97392 -2.17139 -2.20834 -2.11421 
-1.42377 -1.5292 -1.7118 -1.7409 -1.9149 -0.90575 -1.09324 -1.15141 -1.32994 
-0.661271 -0.854892 -0.658093 -0.280391 8.67362e-19 -8.67362e-18 -0.165563 -0.527221 -0.723063 
-0.384142 -0.325223 -6.93889e-18 0 6.93889e-18 -0.151086 -0.114413 -0.335427 -0.558297 
-0.42328 -0.637394 -0.497441 -0.724766 -0.747995 -0.866032 -0.977081 -1.13424 -1.14492 
-1.27972 -1.38472 -1.47748 -1.49348 -1.64014 -1.75222 -2.20596 -2.23605 -2.36565 
-2.3978 -2.50748 -2.51104 -2.57734 -2.65502 -2.49674 -2.62105 -2.5216 -2.46952 
-2.3788 -2.19389 -2.0268 -2.19954 -2.12102 -1.86459 -2.00876 -1.84523 -2.05749 
-2.07975 -1.87211 -2.17165 -2.07353 -2.12164 -2.2865 -2.36102 -2.308 -2.36458 
-2.33207 -2.46148 -1.39628 -1.56677 -1.74784 -1.80753 -1.96048 -2.09117 -0.929088 
-1.07281 -1.18635 -1.32114 -0.337723 -5.20417e-18 -0.22016 -0.102834 -0.573747 -0.549581 
-0.777909 -0.810375 -0.97785 -0.452797 -0.650506 -0.327901 -1.38778e-17 -0.153556 -0.164016 
-0.379376 -0.390916 -0.438369 -0.696499 -0.456282 -0.80519 -0.559389 -1.0256 -1.12956 
-1.23837 -1.42848 -1.53234 -1.6154 -1.49056 -1.78409 -1.8953 -1.9852 -2.35048 
-2.3801 -2.50881 -2.54032 -2.64897 -2.75305 -2.71767 -2.79478 -2.6706 -2.81387 
-2.55922 -2.73588 -2.55788 -2.37699 -2.46854 -2.21674 -2.37849 -2.26346 -2.13488 
-2.14862 -2.23086 -2.27152 -2.26764 -2.43236 -2.24107 -2.31328 -2.41956 -2.38508 
-2.52402 -2.49246 -2.61329 -1.42757 -1.59827 -1.64128 -1.97562 -1.65917 -1.88823 
-1.8933 -2.05124 -2.04114 -2.14536 -2.31626 -1.06731 -1.22918 -1.32194 -6.93889e-18 
-0.329874 -0.306739 3.46945e-18 1.73472e-18 -0.14575 -5.20417e-18 -0.836678 -1.00369 -0.526246 
-0.494613 -0.732137 -0.75793 -0.911067 0 6.93889e-18 -0.200521 -0.247331 -0.325869 
-0.506382 -0.850629 -0.750132 -0.523427 -0.920351 -1.07974 -1.17988 -1.34228 -1.37229 
-1.57594 -1.67811 -1.75059 -1.92595 -2.03481 -2.40603 -2.50291 -2.52274 -2.64944 
-2.69105 -2.78679 -2.89063 -2.86662 -2.93041 -2.91011 -2.95202 -2.73287 -2.55641 
-2.55728 -2.4549 -2.57701 -2.40123 -2.29086 -2.17745 -2.28885 -2.40367 -2.27045 
-2.46319 -2.57322 -2.45295 -2.45608 -2.54359 -2.63583 -2.68624 -2.66982 -2.72013 
-2.76906 -1.47991 -1.7307 -1.88979 -2.11285 -1.98392 -2.21595 -2.20594 -2.16842 
-2.48747 -2.37221 -1.11301 -1.24636 -1.37188 -0.36434 -0.134448 8.67362e-19 -0.0324206 
-0.598248 -0.782939 -0.950036 -1.01638 -6.93889e-18 -0.209722 -6.93889e-18 -0.254946 -0.271043 
-0.312045 -0.399851 -0.811409 -0.882572 -0.623272 -0.573476 -0.937713 -0.979834 -1.13737 
-1.23341 -1.33065 -1.45076 -1.47903 -1.62582 -1.72236 -1.82282 -1.89296 -2.03948 
-2.07043 -2.54843 -2.31392 -2.66136 -2.66458 -2.78871 -2.8478 -2.92309 -3.03644 
-3.02143 -3.06443 -2.90659 -3.06056 -3.08567 -2.73219 -2.73427 -2.58159 -2.74954 
-2.32293 -2.65066 -2.71774 -2.7944 -2.62132 -2.78977 -2.81105 -2.84936 -2.84011 
-2.89122 -2.92717 -1.50791 -1.57656 -1.6189 -1.78154 -1.83109 -2.13954 -1.86186 
-2.06364 -2.08704 -2.23723 -2.29886 -2.38175 -2.45918 -2.33211 -2.65945 -2.42903 
-2.54707 -2.71442 -1.169 -1.27326 -1.4251 -0.473367 -0.419289 -0.201951 -0.100311 
-6.93889e-18 3.46945e-18 -3.46945e-18 3.46945e-18 -3.46945e-18 -0.856926 -0.674442 -0.639387 -0.915469 
-1.07044 6.93889e-18 -0.0313831 -0.0349969 -0.108755 -0.206146 -0.331915 -0.362026 -0.480551 
-0.589198 -0.628202 -0.694275 -0.876198 -0.955912 -1.00971 -1.03971 -1.19061 -1.28804 
-1.38288 -1.56024 -1.77189 -1.86878 -1.96884 -2.11535 -2.18771 -2.21709 -2.68338 
-2.68786 -2.44646 -2.61076 -2.43415 -2.82645 -2.92517 -3.01125 -3.05592 -3.18782 
-3.1823 -3.19496 -3.07779 -2.90636 -3.20363 -3.24818 -3.21736 -2.90891 -2.75841 
-2.92192 -2.4677 -2.57623 -2.83043 -2.86775 -2.9789 -2.83235 -2.88121 -2.93228 
-2.95879 -2.98258 -3.01481 -3.00463 -3.05817 -3.0886 -1.52376 -1.68127 -1.93666 
-1.75543 -2.10033 -2.16684 -2.32606 -2.39089 -2.3752 -2.49119 -2.53592 -2.5877 
-2.61995 -2.56665 -2.75339 -1.17561 -1.32458 -0.478003 -0.337402 -0.217365 -6.93889e-18 
3.46945e-18 -0.211035 0 -6.93889e-18 -0.690675 -0.811428 -0.95223 -1.1041 -1.15155 
0 -0.0100046 -0.0861621 -0.0906737 -0.137037 -0.148017 -0.177239 -0.387555 -0.646001 
-0.670304 -0.767395 -0.938148 -1.02156 -1.0881 -1.09049 -1.23398 -1.33569 -1.43431 
-1.52964 -1.67705 -1.91685 -1.68857 -2.01468 -2.25991 -2.34231 -2.36231 -2.80343 
-2.94294 -2.82772 -2.78454 -2.71842 -2.99713 -3.06316 -3.18028 -3.19041 -3.24593 
-3.34422 -3.35532 -3.07769 -3.0802 -3.3525 -3.37773 -3.24797 -3.34622 -3.09241 
-3.10251 -2.49739 -2.61159 -3.02087 -3.12617 -3.00302 -2.93264 -3.04997 -3.12726 
-3.15025 -3.18066 -3.16573 -3.22138 -3.2513 -1.39152 -1.56004 -1.98666 -1.61531 
-1.79428 -1.8485 -2.3416 -2.02661 -2.09771 -2.39496 -2.2194 -2.54648 -2.64243 
-2.54175 -2.70298 -2.72954 -2.8618 -2.78287 -1.33911 -0.475299 -0.532254 -0.72487 
-0.336726 -0.272711 6.93889e-18 -0.779526 -0.999426 -0.9652 -1.196 -1.2058 -1.38831 
0 1.73472e-18 0 1.73472e-18 0 6.93889e-18 6.93889e-18 6.93889e-18 6.93889e-18 
-6.93889e-18 -6.93889e-18 -6.93889e-18 -6.93889e-18 -0.0871246 -0.197687 -6.93889e-18 -6.93889e-18 -0.307922 
-0.404862 -0.565306 -0.691168 -0.831026 -0.985744 -1.08912 -1.15581 -1.1854 -1.37148 
-1.47641 -1.57743 -1.67458 -1.95727 -2.0588 -2.15813 -1.81787 -1.79993 -2.40349 
-3.08152 -2.967 -2.96481 -2.85831 -3.17075 -3.20121 -3.23235 -3.32662 -3.3475 
-3.47599 -3.50322 -3.63003 -3.50508 -3.24986 -3.49103 -3.41758 -3.56256 -3.41851 
-3.2627 -3.27055 -2.50662 -2.50846 -2.6901 -2.75186 -3.17734 -3.27814 -3.16235 
-3.10809 -2.94591 -3.21886 -3.17542 -3.29665 -3.31518 -3.34835 -3.38234 -3.32404 
-3.4163 -3.48032 -1.57172 -1.62579 -1.80672 -1.86536 -2.04236 -2.10394 -2.25162 
-2.57103 -2.45147 -2.62512 -2.386 -2.79515 -2.74533 -2.89477 -2.73718 -2.91852 
-3.02165 -0.569231 -0.0813056 -0.195206 -0.323991 -0.408536 0 -0.634402 -0.80722 
-0.844865 -1.02473 -1.2098 -1.41011 -1.44661 -6.93889e-18 6.93889e-18 -0.0683938 -0.214707 
-0.431742 -0.650394 -0.700948 -0.728678 -0.875505 -1.01779 -1.12829 -1.22638 -1.26262 
-1.39193 -1.50507 -1.61391 -1.71815 -1.93694 -2.09288 -2.0941 -2.19881 -2.30037 
-2.54324 -2.64729 -2.97456 -3.1486 -3.22183 -3.31704 -2.99863 -3.1076 -3.3271 
-3.46405 -3.34992 -3.45949 -3.5149 -3.60341 -3.50621 -3.67162 -3.75244 -3.66532 
-3.58605 -3.58628 -3.43291 -3.58229 -3.43723 -2.78752 -2.88383 -2.89236 -3.33578 
-3.43271 -3.31827 -3.11102 -3.18314 -3.2769 -3.38871 -3.44435 -3.28068 -3.34563 
-3.46649 -3.47777 -3.51709 -3.54102 -3.5829 -3.49761 -3.63409 -3.66172 -1.46118 
-1.63203 -1.68746 -1.71008 -1.85871 -1.92901 -1.95499 -2.09514 -2.16684 -2.27857 
-2.34195 -2.79877 -2.46726 -2.67892 -2.7168 -2.5137 -2.95065 -3.04699 -2.74781 
-2.94764 -3.09981 -3.18664 -0.595327 3.46945e-18 -0.0535055 -0.13112 -0.210913 -0.46067 
-0.28491 -0.665372 -0.481875 -0.867472 -0.995794 -1.09015 -1.26788 -3.46945e-18 -0.0771509 
0 -0.187127 -6.93889e-18 -0.23886 -0.411813 -0.434907 -0.459938 -0.506992 -0.715135 
-0.732312 -0.763384 -0.90236 -1.03284 -1.14964 -1.29392 -1.32116 -1.51394 -1.63222 
-1.74584 -1.85414 -1.98704 -2.09843 -2.27342 -2.33424 -2.43859 -2.68164 -3.24679 
-3.33766 -3.35966 -3.341 -3.47619 -3.34784 -2.9111 -3.08891 -3.13734 -3.53714 
-3.59538 -3.52583 -3.59262 -3.68975 -3.7299 -3.8472 -3.8734 -3.83168 -3.75431 
-3.60187 -3.75636 -3.76735 -3.60248 -3.63592 -2.92407 -3.03076 -3.59114 -3.47116 
-3.26486 -3.42391 -3.61204 -3.53915 -3.45166 -3.51021 -3.58545 -3.63759 -3.68589 
-3.69607 -3.75022 -3.78304 -3.7519 -3.82703 -3.86308 -1.51062 -1.57103 -1.7513 
-1.80692 -1.98892 -2.18875 -2.04227 -2.34617 -2.4006 -2.57557 -2.97196 -2.857 
-3.02806 -2.68547 -2.88568 -2.74902 -3.1068 -3.19982 -3.1518 -3.29915 -3.14549 
-3.26925 -3.35463 0 0 -6.93889e-18 -1.38778e-17 0 -1.38778e-17 3.46945e-18 
-0.0738354 -0.502655 -0.177691 -0.279212 -0.350492 -0.731906 -0.912324 -1.13561 -0.971612 
-1.33227 0 0 -0.0899243 -0.271081 -0.244329 -0.46625 -0.487841 -0.567191 
-0.756877 -0.764755 -0.789336 -0.791293 -0.911938 -1.02943 -1.1535 -1.27498 -1.26315 
-1.36645 -1.39124 -1.49956 -1.62972 -1.87378 -1.75446 -2.11367 -2.22545 -2.35329 
-2.44986 -2.57499 -2.81596 -3.41164 -3.38631 -3.2315 -3.61091 -3.16787 -3.71858 
-3.71251 -3.7407 -3.85244 -3.72089 -3.81492 -3.92757 -4.00556 -4.05213 -3.90387 
-3.92446 -3.93074 -3.77345 -3.66349 -3.05971 -3.62096 -3.76696 -3.69322 -3.43201 
-3.61988 -3.78128 -3.74789 -3.67546 -3.59377 -3.75403 -3.79793 -3.92017 -3.93031 
-3.99533 -3.90644 -3.91428 -4.01015 -3.85055 -1.38409 -1.40345 -1.6123 -1.62413 
-1.6281 -1.81511 -1.85957 -2.22223 -1.87519 -2.01992 -2.09541 -2.27574 -2.41513 
-2.61586 -2.63108 -2.80678 -3.20003 -3.14618 -3.08919 -3.0956 -3.26029 -2.92028 
-2.98125 -3.45083 -3.32957 -3.37041 -3.51027 -3.60369 1.73472e-18 -0.0711394 3.46945e-18 
-0.546249 -0.604076 -0.143815 -0.387943 -0.211099 -0.410993 -0.602894 -0.789041 -0.761416 
-1.19502 -1.15311 -0.80224 -0.934253 -1.02454 -1.20684 0 0 -0.100533 
-0.27245 -0.283867 -0.346785 -0.497313 -0.608783 -0.778695 -0.810493 -0.615477 -0.81631 
-0.895693 -0.993806 -1.13244 -1.2229 -1.36279 -1.44879 -1.54347 -1.59651 -1.73579 
-1.86862 -1.99452 -2.23548 -2.46683 -2.47461 -2.59418 -2.47794 -2.70442 -2.70992 
-2.93865 -3.49761 -3.53718 -3.63166 -3.52147 -3.29923 -3.52139 -3.27601 -3.73818 
-3.72862 -3.86144 -3.21427 -3.30191 -3.41084 -3.73354 -3.90178 -3.85355 -3.98124 
-3.93161 -3.98316 -3.87302 -3.99345 -4.02811 -4.13782 -4.02111 -4.18398 -4.09473 
-4.13059 -4.26078 -4.09589 -3.94371 -4.11636 -3.7982 -3.80712 -2.95821 -3.17085 
-3.87244 -3.78534 -3.84277 -3.91355 -3.9128 -3.66899 -3.82838 -3.93289 -3.85125 
-3.85694 -3.98827 -4.16486 -4.17734 -4.04343 -4.08015 -4.07524 -4.17351 -4.19865 
-3.94614 -1.38879 -1.44053 -1.67646 -1.72988 -1.91272 -2.12305 -1.96776 -2.22247 
-2.3303 -2.45488 -2.50951 -2.63491 -2.68604 -2.85249 -2.83772 -3.28263 -3.09012 
-3.18473 -3.05806 -2.85122 -2.86817 -3.49403 -3.49125 -3.29886 -3.71344 -3.60734 
0 -6.93889e-18 6.93889e-18 -8.67362e-19 -0.00840852 -0.433751 -0.0855639 -0.171972 -0.273953 
-0.657233 -0.842411 -1.05901 -0.894401 -1.25833 0 -0.106514 -0.295273 -0.298759 
-0.312684 -0.383136 -0.510622 -0.519835 -0.775336 -0.53168 -0.53766 -0.544642 -0.828145 
-0.598215 -0.85036 -0.854285 -1.07673 -1.14811 -1.30141 -1.44998 -1.52694 -1.6529 
-1.68186 -1.83082 -1.97403 -2.10905 -2.34856 -2.5886 -2.71605 -2.7072 -2.83586 
-2.9493 -3.74466 -3.5223 -3.75995 -3.76552 -3.87825 -3.74852 -4.07155 -3.96465 
-3.99398 -3.19207 -3.32162 -3.38971 -3.48002 -3.54574 -3.65538 -4.09662 -4.10868 
-4.06105 -4.20086 -4.12923 -4.23482 -4.11513 -4.21555 -4.25512 -4.36967 -4.26518 
-4.1564 -4.39941 -3.95739 -4.11906 -3.97839 -4.00429 -3.07787 -3.95078 -4.01051 
-3.92878 -3.72665 -3.94356 -3.74796 -3.73874 -4.0284 -4.07549 -4.091 -4.22585 
-4.24775 -4.26612 -4.11351 -4.27378 -1.49255 -1.5464 -1.55554 -1.70665 -1.78534 
-2.15021 -1.82524 -2.02512 -2.20663 -2.37069 -2.42878 -2.56539 -2.62438 -2.83295 
-2.64465 -2.7591 -3.13409 -3.07469 -2.88462 -2.67736 -2.6794 -2.69575 -3.50623 
-3.31432 -3.10668 -3.10755 -3.12363 -3.62823 -3.66086 8.67362e-19 1.73472e-18 -4.33681e-19 
-0.512431 -0.468283 -0.0686906 1.73472e-18 -0.272392 -0.135656 -0.333885 -0.523456 -0.660295 
-0.710304 -1.07648 -1.12641 -0.735377 -0.827185 -0.946745 -1.12831 -1.30296 0 
-0.0579763 -0.116463 -0.119104 -0.315799 -0.324491 -0.381128 -0.547339 -0.740077 -0.842519 
-0.744422 -0.884475 -0.921905 -0.65404 -0.989162 -1.21161 -1.37059 -1.59168 -1.71531 
-1.81113 -1.90996 -2.06381 -2.21135 -2.44996 -2.68217 -2.82547 -2.95632 -3.77275 
-4.00003 -4.00986 -4.03313 -4.1235 -4.13977 -4.11341 -3.20129 -3.44566 -3.43555 
-3.56565 -3.6108 -3.89833 -3.78822 -3.75262 -4.23563 -4.2584 -4.31278 -4.36944 
-4.30544 -4.35384 -4.42396 -4.47883 -4.44311 -4.27955 -4.43819 -4.28914 -4.22186 
-4.15226 -4.50481 -4.15971 -4.20256 -4.0685 -4.21523 -4.17759 -4.0785 -3.70667 
-3.75644 -4.14715 -3.95198 -3.81468 -3.74957 -3.55752 -3.5464 -4.2229 -4.2647 
-4.31505 -4.33742 -4.41855 -4.31865 -4.44114 -4.33883 -4.43643 -4.34654 -4.3487 
-1.33109 -1.52468 -1.60227 -1.42041 -1.3642 -1.66228 -1.84387 -1.87624 -2.03768 
-2.08604 -2.2655 -2.38622 -2.38778 -2.43956 -2.43715 -2.45714 -2.66267 -2.47501 
-3.09115 -2.90103 -2.71216 -2.66592 -2.49163 -2.58948 -3.52056 -3.13908 -3.32914 
-3.1057 -2.91756 -3.09063 -3.53404 0 0 6.93889e-18 -0.3924 -0.200549 
6.93889e-18 0 -0.0526048 -0.393288 -0.579052 -0.764045 -0.996395 -0.81967 -1.18191 
-1.31041 0 0 6.93889e-18 0 -0.0722312 -0.120538 -0.12055 -0.121275 
-0.325353 -0.328157 -0.34537 -0.52977 -0.556871 -0.558663 -0.815686 -0.924698 -0.566531 
-0.574969 -0.578371 -1.04739 -1.26599 -1.42978 -1.7526 -1.64607 -1.81166 -1.95808 
-2.02398 -2.139 -2.29751 -2.52824 -2.57363 -2.74652 -2.85102 -2.91162 -3.06717 
-4.02211 -4.19217 -4.24495 -4.25533 -4.29951 -4.36906 -4.23995 -3.11257 -3.2821 
-3.30962 -3.31622 -3.51305 -3.679 -3.66481 -3.69327 -3.81154 -3.82315 -4.01964 
-4.03364 -4.14381 -3.92359 -4.35797 -4.46405 -4.41102 -4.51092 -4.48628 -4.35844 
-4.36268 -4.524 -4.60367 -4.69824 -4.60363 -4.591 -4.56041 -4.46469 -4.44218 
-4.31547 -4.47337 -4.34053 -4.3268 -4.60569 -4.61243 -4.54946 -4.1522 -4.31103 
-3.75858 -3.95796 -3.88595 -3.81458 -3.56683 -3.35546 -3.36696 -3.37642 -3.34288 
-4.43942 -4.45354 -4.51113 -4.50197 -4.50755 -4.4103 -4.54317 -4.34907 -4.15419 
-1.2395 -1.27006 -1.48251 -1.72761 -1.907 -2.1161 -2.15538 -2.17479 -2.20225 
-2.41402 -2.228 -2.41725 -2.271 -2.25296 -2.27036 -2.28808 -2.30463 -2.72879 
-2.53201 -2.5264 -2.50791 -2.32092 -3.09654 -3.15311 -3.13678 -2.93388 -2.74524 
-0.393805 -0.156204 -0.266725 -0.454015 8.67362e-19 -0.00514666 -0.0760679 -0.535335 -0.636878 
-1.01192 -1.00113 -1.0607 -0.881383 -1.19016 0 -6.93889e-18 6.93889e-18 -0.0663844 
-0.121646 -0.118884 -0.328288 -0.329688 -0.329359 -0.873148 -0.976998 -0.623474 -0.687053 
-0.421426 -0.538444 -0.324355 -0.40022 -0.584731 -1.04305 -1.09782 -1.31102 -1.47941 
-1.69184 -1.86176 -1.97644 -2.17822 -2.28902 -2.36617 -2.38324 -2.42191 -2.58927 
-2.75223 -2.97616 -2.91695 -2.80853 -4.26747 -4.38807 -4.42681 -4.48504 -4.49841 
-4.49938 -4.61253 -3.14412 -3.20215 -3.37484 -3.54581 -3.77749 -3.70847 -3.60191 
-3.90356 -3.99667 -4.16984 -4.04831 -4.26877 -4.28978 -4.05848 -4.51389 -4.61075 
-4.62464 -4.64069 -4.67404 -4.80554 -4.85032 -4.7247 -4.74659 -4.61844 -4.75684 
-4.50414 -4.37233 -4.37759 -4.52457 -4.76808 -4.63203 -4.78996 -4.79293 -4.64139 
-4.63699 -3.76529 -3.96062 -3.7689 -3.57394 -3.38215 -3.15733 -3.20317 -3.26626 
-3.33156 -4.51455 -4.56755 -4.61682 -4.6875 -4.59056 -4.67777 -4.5422 -4.63219 
-4.51878 -4.34729 -3.97752 -4.15302 -4.08579 -1.34979 -1.1271 -1.30382 -1.49914 
-1.55051 -1.60351 -1.79847 -1.97482 -2.14628 -1.98835 -1.96215 -1.9903 -2.01735 
-2.04262 -2.25062 -2.06472 -2.11804 -2.08823 -2.10179 -2.11832 -2.13471 -2.54107 
-2.55767 -2.52434 -2.49689 -2.33744 -2.15138 -2.94964 -2.96412 -2.76119 -0.270075 
-0.156014 -0.339097 -0.521424 8.67362e-19 0 0 6.93889e-18 0 -0.681738 
-0.701227 -0.719422 -0.822561 -0.950131 6.93889e-18 6.93889e-18 -0.0205104 -0.11764 -0.259114 