# vtk DataFile Version 4.2
3D Slicer output. SPACE=LPS
ASCII
DATASET POLYDATA
POINTS 2473 float
-6.655 -26.0642 21.3923 -6.655 -25.9655 21.4605 -6.72063 -25.9655 21.3923 
-6.35501 -26.2655 21.4935 -6.50223 -26.2655 21.3923 -6.76068 -26.2655 21.0923 
-6.655 -26.2655 21.229 -6.35719 -25.9655 21.6923 -6.88265 -25.6655 21.3923 
-6.655 -25.6655 21.6354 -6.59085 -25.6655 21.6923 -6.95501 -25.9586 21.0923 
-6.95501 -25.6655 21.2975 -6.35501 -26.3962 21.3923 -6.29298 -26.3045 21.4726 
-6.29242 -26.2655 21.5088 -6.30001 -26.4068 21.3923 -6.29145 -26.2339 21.5356 
-6.655 -26.4144 21.0923 -6.35501 -26.5655 21.2425 -6.95501 -26.2655 20.7956 
-6.74845 -26.5655 20.7923 -6.655 -26.5655 20.9337 -6.27468 -26.0066 21.6923 
-6.27332 -25.9655 21.7243 -6.35501 -25.6655 21.8615 -6.655 -25.5431 21.6923 
-6.95501 -25.5025 21.3923 -7.13397 -25.9655 20.7923 -7.10094 -25.6655 21.0923 
-6.30361 -26.5464 21.2681 -6.53813 -26.5655 21.0923 -6.35501 -26.7147 21.0923 
-6.30273 -26.597 21.2163 -6.30349 -26.5655 21.2489 -6.3011 -26.7204 21.0923 
-6.95501 -26.2686 20.7923 -7.11632 -26.2655 20.4923 -6.655 -26.6861 20.7923 
-6.91965 -26.5655 20.4923 -6.95501 -26.5161 20.4923 -6.49078 -26.8655 20.7923 
-6.2701 -25.7504 21.8463 -6.26908 -25.6655 21.9022 -6.35501 -25.3855 21.9923 
-6.655 -25.3655 21.7649 -6.73306 -25.3655 21.6923 -6.95501 -25.3655 21.4572 
-7.0115 -25.3655 21.3923 -7.255 -25.3655 21.0591 -7.255 -25.7246 20.7923 
-7.255 -25.9655 20.5578 -7.255 -25.6655 20.8418 -6.35501 -26.8655 20.9161 
-6.29365 -26.8655 20.9263 -6.30025 -26.7422 21.0692 -7.255 -26.2655 20.1456 
-7.03162 -26.5655 20.1923 -6.95501 -26.5655 20.4075 -7.255 -26.0224 20.4923 
-7.255 -26.2386 20.1923 -6.655 -26.8655 20.5483 -6.655 -26.9025 20.4923 
-6.35501 -26.9619 20.7923 -6.2724 -25.4692 21.9923 -6.3678 -25.3655 21.9923 
-6.27387 -25.3801 22.0343 -6.35501 -25.0655 22.1142 -6.655 -25.0655 21.8782 
-6.52229 -25.0655 21.9923 -6.84827 -25.0655 21.6923 -6.95501 -25.0655 21.5784 
-7.11981 -25.0655 21.3923 -7.255 -25.0655 21.2141 -7.255 -25.3099 21.0923 
-7.42943 -25.3655 20.7923 -7.28574 -25.6655 20.7923 -7.45825 -25.6655 20.4923 
-7.28963 -25.9655 20.4923 -6.28744 -26.9401 20.8314 -7.255 -26.3869 19.8923 
-7.34266 -26.2655 19.8923 -7.43765 -25.9655 20.1923 -7.1218 -26.5655 19.8923 
-6.95501 -26.6774 20.1923 -6.82207 -26.8655 20.1923 -6.35501 -27.1636 20.4923 
-6.655 -27.0793 20.1923 -6.57451 -27.1655 20.1923 -6.28563 -26.9758 20.7923 
-6.2634 -27.1642 20.5309 -6.28328 -27.0105 20.7508 -6.27563 -25.1448 22.123 
-6.27892 -25.0655 22.1507 -6.35501 -24.7655 22.2021 -6.29394 -24.9478 22.184 
-6.2803 -25.0389 22.1585 -6.655 -24.7655 21.9686 -6.95501 -24.7655 21.6735 
-7.20733 -24.7655 21.3923 -7.255 -24.7655 21.3326 -7.34509 -25.0655 21.0923 
-7.44681 -24.7655 21.0923 -7.55501 -25.0799 20.7923 -7.55501 -25.3655 20.5935 
-7.55501 -25.4856 20.4923 -7.55501 -25.6655 20.3156 -7.41967 -26.2655 19.5923 
-7.255 -26.4749 19.5923 -7.56045 -25.9655 19.8923 -7.55501 -26.0946 19.5923 
-7.55501 -25.7721 20.1923 -7.18155 -26.5655 19.5923 -6.95501 -26.7942 19.8923 
-6.90362 -26.8655 19.8923 -6.655 -27.1655 19.9914 -6.35501 -27.3409 20.1923 
-6.2429 -27.3111 20.3044 -6.26097 -27.1942 20.4923 -6.29276 -24.7655 22.2382 
-6.655 -24.6564 21.9923 -6.35501 -24.4655 22.2616 -6.95501 -24.6896 21.6923 
-7.255 -24.566 21.3923 -7.55501 -24.7655 20.9591 -7.55501 -24.4492 21.0923 
-7.68589 -24.7655 20.7923 -7.78936 -25.0655 20.4923 -7.61925 -25.3655 20.4923 
-7.8084 -25.3655 20.1923 -7.62138 -25.6655 20.1923 -7.46879 -26.2655 19.2923 
-7.255 -26.5111 19.2923 -7.55501 -26.1666 19.2923 -7.66192 -25.9655 19.5923 
-7.77353 -25.6655 19.8923 -7.73461 -25.9655 19.2923 -6.94955 -26.8655 19.5923 
-7.20588 -26.5655 19.2923 -6.95501 -26.8655 19.5214 -6.72018 -27.1655 19.5923 
-6.68167 -27.1655 19.8923 -6.35501 -27.4655 19.9648 -6.35501 -27.5017 19.8923 
-6.22596 -27.4655 20.0693 -6.23579 -27.3938 20.1923 -6.29492 -24.5813 22.2734 
-6.69382 -24.4655 21.9923 -6.95501 -24.4655 21.737 -6.655 -24.1655 22.0589 
-6.35501 -24.1655 22.2839 -6.28502 -24.4655 22.2955 -6.28279 -24.3933 22.3026 
-7.00101 -24.4655 21.6923 -7.27716 -24.4655 21.3923 -7.855 -24.4655 20.7584 
-7.63412 -24.1655 21.0923 -7.855 -24.394 20.7923 -7.55501 -24.1655 21.1716 
-7.855 -24.7655 20.5972 -7.855 -24.9437 20.4923 -7.855 -25.0655 20.4069 
-7.855 -25.2977 20.1923 -7.855 -25.3655 20.1152 -7.855 -25.5496 19.8923 
-7.48091 -26.2655 18.9923 -7.255 -26.5113 18.9923 -7.55501 -26.1838 18.9923 
-7.855 -25.6655 19.7123 -7.855 -25.7271 19.5923 -7.855 -25.834 19.2923 
-7.75716 -25.9655 18.9923 -7.855 -25.8675 18.9923 -7.2011 -26.5655 18.9923 
-6.95501 -26.8258 18.9923 -6.95501 -26.8655 19.2544 -6.95748 -26.8655 19.2923 
-6.71228 -27.1655 19.2923 -6.655 -27.2495 19.5923 -6.655 -27.2359 19.2923 
-6.48114 -27.4655 19.5923 -6.21795 -27.5618 19.9316 -6.21474 -27.5834 19.8923 
-6.35501 -27.6042 19.5923 -6.19651 -27.6424 19.7508 -6.73309 -24.1655 21.9923 
-6.95501 -24.1655 21.7744 -6.655 -23.8655 22.0677 -6.2925 -24.1655 22.3148 
-6.35501 -23.8655 22.29 -6.29286 -24.1033 22.3159 -7.03919 -24.1655 21.6923 
-7.255 -24.1655 21.4703 -7.32958 -24.1655 21.3923 -7.95386 -24.7655 20.4923 
-8.155 -24.4579 20.4923 -7.855 -24.1655 20.8869 -7.71243 -23.8655 21.0923 
-7.55501 -23.8655 21.2291 -7.96623 -24.1655 20.7923 -8.155 -24.1655 20.6454 
-8.155 -24.8902 20.1923 -8.01787 -25.0655 20.1923 -7.98815 -25.3655 19.8923 
-7.44732 -26.2655 18.6923 -7.255 -26.461 18.6923 -7.55501 -26.1571 18.6923 
-7.90655 -25.6655 19.5923 -8.155 -25.3655 19.6349 -8.02562 -25.6655 19.2923 
-7.74463 -25.9655 18.6923 -7.855 -25.8641 18.6923 -8.09947 -25.6655 18.9923 
-7.14838 -26.5655 18.6923 -6.95501 -26.7612 18.6923 -6.85665 -26.8655 18.6923 
-6.655 -27.0855 18.6923 -6.655 -27.1655 19.001 -6.47706 -27.4655 19.2923 
-6.41337 -27.4655 18.9923 -6.19466 -27.6904 19.6757 -6.20723 -27.7439 19.5923 
-6.35501 -27.6262 19.2923 -6.25075 -27.7655 19.2923 -6.19823 -27.7655 19.5299 
-6.7458 -23.8655 21.9923 -6.95501 -23.8655 21.7904 -6.73922 -23.5655 21.9923 
-6.655 -23.5655 22.0607 -6.35501 -23.5655 22.2783 -6.28943 -23.8655 22.3225 
-7.05594 -23.8655 21.6923 -7.255 -23.8655 21.5018 -7.37048 -23.8655 21.3923 
-8.155 -24.7655 20.2927 -8.455 -24.4655 20.2795 -8.39323 -24.1655 20.4923 
-7.855 -23.8655 20.9781 -7.77992 -23.5655 21.0923 -7.55501 -23.5655 21.2595 
-8.155 -23.8655 20.7628 -8.455 -24.0951 20.4923 -8.455 -23.8655 20.5939 
-8.27046 -24.7655 20.1923 -8.455 -24.7655 20.0433 -8.155 -25.0655 20.0172 
-8.155 -25.1736 19.8923 -7.38451 -26.2655 18.3923 -7.255 -26.3897 18.3923 
-7.55501 -26.1029 18.3923 -8.155 -25.3947 19.5923 -8.155 -25.5525 19.2923 
-8.455 -25.155 19.5923 -7.69594 -25.9655 18.3923 -7.855 -25.8177 18.3923 
-8.155 -25.6548 18.6923 -8.07564 -25.6655 18.3923 -8.155 -25.6267 18.9923 
-7.06766 -26.5655 18.3923 -6.95501 -26.6808 18.3923 -6.78221 -26.8655 18.3923 
-6.655 -27.0018 18.3923 -6.51644 -27.1655 18.3923 -6.58687 -27.1655 18.6923 
-6.35501 -27.5455 18.9923 -6.35501 -27.4655 18.7705 -6.20906 -27.7655 18.9923 
-6.13107 -27.8779 19.1441 -6.17142 -27.8555 19.2923 -6.17258 -27.803 19.4121 
-6.95501 -23.5655 21.7921 -6.72539 -23.2655 21.9923 -6.95501 -23.2655 21.7829 
-6.655 -23.2655 22.0469 -6.35501 -23.2655 22.2401 -6.28035 -23.6401 22.3182 
-6.28546 -23.5655 22.3104 -6.31432 -23.4533 22.2835 -7.06092 -23.5655 21.6923 
-7.255 -23.5655 21.5152 -7.39246 -23.5655 21.3923 -8.455 -24.5852 20.1923 
-8.60343 -24.4655 20.1923 -8.755 -24.1655 20.3115 -8.455 -24.1655 20.4564 
-8.155 -23.7782 20.7923 -8.155 -23.5655 20.8553 -7.855 -23.5655 21.0418 
-7.855 -23.2655 21.0717 -7.55501 -23.2655 21.2662 -8.68241 -23.8655 20.4923 
-8.755 -23.5655 20.5809 -8.455 -23.5655 20.6983 -8.26698 -23.5655 20.7923 
-8.455 -24.9183 19.8923 -8.678 -24.7655 19.8923 -8.27181 -25.0655 19.8923 
-8.455 -25.0655 19.714 -7.29748 -26.2655 18.0923 -7.255 -26.3062 18.0923 
-7.59376 -25.9655 18.0923 -8.40575 -25.3655 19.2923 -8.455 -25.3655 19.215 
-8.455 -25.442 18.9923 -8.59853 -25.0655 19.5923 -8.755 -25.1623 19.2923 
-8.455 -25.3328 19.2923 -7.855 -25.7145 18.0923 -7.9202 -25.6655 18.0923 
-8.155 -25.6245 18.3923 -8.455 -25.5071 18.6923 -8.155 -25.5356 18.0923 
-6.95501 -26.5734 18.0923 -6.655 -26.8805 18.0923 -6.4136 -27.1655 18.0923 
-6.35501 -27.3519 18.3923 -6.35501 -27.2365 18.0923 -6.35501 -27.4393 18.6923 
-6.12581 -27.7655 18.6923 -6.05501 -27.8857 18.6923 -6.05501 -27.9402 18.8321 
-6.10972 -27.9185 18.9923 -7.05134 -23.2655 21.6923 -6.66243 -22.9655 21.9923 
-6.95501 -22.9655 21.7325 -6.99696 -22.9655 21.6923 -6.41853 -23.029 22.1381 
-6.35501 -23.1324 22.2058 -6.32008 -23.2655 22.2568 -7.255 -23.2655 21.5086 
-7.38995 -23.2655 21.3923 -8.755 -24.4655 20.1086 -8.755 -24.3521 20.1923 
-9.07024 -24.1655 20.1923 -9.05501 -23.8655 20.3579 -8.755 -23.8655 20.4621 
-8.155 -23.2655 20.9143 -8.155 -22.9655 20.9241 -7.855 -22.9655 21.0673 
-7.55501 -22.9655 21.2459 -8.755 -23.797 20.4923 -9.05501 -23.5588 20.4923 
-9.05501 -23.2655 20.5902 -8.755 -23.2655 20.6616 -8.455 -23.2655 20.774 
-8.755 -24.9774 19.5923 -8.755 -24.7655 19.8425 -8.755 -24.7151 19.8923 
-7.255 -26.2655 17.9851 -7.55501 -25.9655 18.0052 -8.59428 -25.3655 18.9923 
-8.755 -25.0655 19.4578 -8.97077 -25.0655 19.2923 -9.05501 -25.1584 18.9923 
-8.755 -25.2842 18.9923 -7.855 -25.6655 17.9756 -8.455 -25.5145 18.3923 
-8.77101 -25.3655 18.6923 -8.755 -25.4197 18.3923 -8.455 -25.4475 18.0923 
-8.36033 -25.3655 17.7923 -8.155 -25.4286 17.7923 -6.84037 -26.5655 17.7923 
-6.95501 -26.454 17.7923 -6.655 -26.7592 17.7923 -6.35501 -27.1655 17.9305 
-6.56107 -26.8655 17.7923 -6.26408 -27.4655 18.3923 -6.17551 -27.4655 18.0923 
-6.05501 -27.7655 18.4581 -5.89247 -27.9765 18.4118 -5.95156 -27.9662 18.558 
-6.01019 -27.9595 18.6923 -7.255 -22.9655 21.4619 -6.655 -22.945 21.9923 
-6.43857 -22.9655 22.1163 -6.95501 -22.8289 21.6923 -7.34284 -22.9655 21.3923 
-9.05501 -24.5555 19.8923 -9.05501 -24.4655 19.9734 -9.355 -24.1655 20.1141 
-9.355 -24.0402 20.1923 -9.355 -23.8655 20.287 -9.355 -23.5655 20.4283 
-8.455 -23.1634 20.7923 -8.49504 -22.9655 20.7923 -8.455 -22.7337 20.7923 
[...]
POINT_DATA 2473
SCALARS scalars float
LOOKUP_TABLE default
-0.431633 -0.438755 -0.522696 -0.066043 -0.229163 -0.565797 -0.42218 -0.0922885 -0.761911 
-0.454662 -0.373672 -0.849088 -0.867721 -0.0568865 0 6.93889e-18 0 -6.93889e-18 
-0.419517 -0.0523846 -0.849925 -0.556721 -0.4231 0 0 -0.0948288 -0.458333 
-0.870781 -1.12491 -1.08575 6.93889e-18 -0.264569 -0.0543731 0 6.93889e-18 6.93889e-18 
-0.850017 -1.11147 -0.430447 -0.819455 -0.869819 -0.223082 0 0 -0.0895874 
-0.45998 -0.562795 -0.871328 -0.952772 -1.33306 -1.32656 -1.32808 -1.32877 -0.0626226 
0 0 -1.37554 -1.03676 -0.883654 -1.3322 -1.36744 -0.451362 -0.45725 
-0.0707986 0 -0.104048 0 -0.086952 -0.44906 -0.279893 -0.70942 -0.860577 
-1.10112 -1.31478 -1.33076 -1.61464 -1.37648 -1.65351 -1.38525 0 -1.4285 
-1.55649 -1.63804 -1.23596 -0.922636 -0.727324 -0.099049 -0.492905 -0.38814 -6.93889e-18 
0 0 0 0 -0.0897653 0 -1.38778e-17 -0.436116 -0.844687 
-1.21299 -1.28702 -1.45949 -1.5861 -1.80255 -1.81333 -1.80968 -1.81173 -1.74767 
-1.51259 -1.87046 -1.9381 -1.81985 -1.40861 -0.989741 -0.912967 -0.52661 -0.129443 
1.38778e-17 0 0 -0.43385 -0.0846859 -0.842064 -1.27317 -1.75369 -1.70613 
-1.9605 -2.16405 -1.9127 -2.20224 -1.92073 -1.91206 -1.61593 -2.03029 -2.08395 
-2.17711 -2.27135 -1.06831 -1.54871 -1.10016 -0.725246 -0.584349 -0.149191 -0.155737 
-1.38778e-17 -1.38778e-17 0 -0.482247 -0.838438 -0.438086 -0.0703012 0 0 
-0.90156 -1.30118 -2.14706 -1.7974 -2.13301 -1.6864 -2.21385 -2.24747 -2.26136 
-2.26823 -2.27456 -2.29401 -2.03969 -1.72796 -2.14183 -2.32252 -2.34788 -2.42943 
-2.41531 -2.54135 -1.65632 -1.31908 -1.20127 -1.18913 -0.827021 -0.627906 -0.741747 
-0.372793 0 0 -0.198651 0 -0.539567 -0.845441 -0.446168 0 
-0.0752756 6.93889e-18 -0.961713 -1.26719 -1.37379 -2.35564 -2.54612 -2.09683 -1.8672 
-1.67537 -2.24196 -2.47941 -2.66805 -2.49433 -2.48116 -2.12132 -1.8617 -2.26563 
-2.4167 -2.72594 -2.64117 -2.51952 -2.65948 -2.82688 -1.7205 -1.45986 -1.32377 
-1.04029 -0.887073 -0.468273 -0.522855 1.38778e-17 1.04083e-17 -0.278157 -0.11668 6.93889e-18 
-0.564194 -0.854297 -0.53195 -0.426605 -0.0891462 -6.93889e-18 -0.994853 -1.27011 -1.42916 
-2.634 -2.89818 -2.59297 -2.02682 -1.77261 -1.52462 -2.28116 -2.53617 -2.31964 
-2.78373 -3.01397 -2.68255 -2.6939 -2.17314 -2.00301 -2.39663 -2.7318 -2.7923 
-3.06427 -2.58364 -2.78926 -2.99298 -3.03646 -2.88713 -1.76052 -1.60757 -1.36727 
-1.19051 -0.98612 -0.940197 -0.428226 -0.556141 -0.175558 -1.38778e-17 0 0 
-0.812507 -0.409834 -0.684986 -0.329669 -0.0705608 1.38778e-17 1.38778e-17 0 -0.945184 
-1.17833 -1.34003 -2.94943 -2.92976 -2.66886 -2.60355 -2.20056 -2.00661 -1.85296 
-1.70506 -1.38478 -2.36677 -2.11049 -2.04397 -2.01689 -3.02938 -3.26086 -2.8289 
-3.04838 -2.20739 -2.15179 -2.60843 -3.06668 -3.13755 -3.19788 -3.21091 -3.41951 
-3.11841 -2.95252 -3.02835 -3.11587 -3.28657 -3.26829 -1.77608 -1.3714 -1.01663 
-0.752135 -0.929158 -0.599271 -0.218047 -0.0844399 -6.93889e-18 -6.93889e-18 -0.801045 -0.237211 
-0.580049 -0.630531 0 -6.93889e-18 0 -1.04251 -1.1999 -2.96715 -2.85237 
-2.75642 -2.46789 -2.38442 -1.73595 -1.46182 -1.44679 -1.26358 -2.32106 -2.18473 
-1.91359 -1.84398 -1.77551 -3.36683 -3.28672 -3.23114 -2.2137 -2.61046 -3.3373 
-3.38891 -3.43786 -3.36571 -3.49494 -3.02242 -3.38829 -3.59005 -3.65624 -3.52406 
-3.60624 -3.43207 -1.80741 -1.95684 -1.55582 -1.03391 -1.42225 -0.613585 -0.652372 
-0.24707 0 6.93889e-18 0 -0.933877 -0.223864 -1.38778e-17 -0.543096 -1.03321 
-3.14701 -3.05223 -2.81262 -2.68717 -2.51542 -2.2283 -1.68537 -1.51736 -1.29843 
-1.1804 -1.15843 -1.16044 -1.16774 -0.859748 -2.08333 -1.95009 -1.67346 -1.63497 
-1.58211 -3.37509 -3.3679 -2.61226 -2.33847 -2.21798 -2.7525 -3.35781 -3.35717 
-3.07892 -3.1024 -3.39012 -3.13042 -3.0194 -3.55493 -3.76337 -3.8124 -3.65 
-3.53198 -3.68015 -3.82606 -1.78948 -2.20658 -2.20494 -1.45373 -0.672234 -1.0526 
-1.12664 -1.3535 -0.255373 -0.474244 0 -0.177636 1.38778e-17 0 -0.504453 
-0.43002 -3.06515 -3.17938 -2.77815 -2.75797 -2.6726 -2.57462 -2.28893 -1.23519 
-1.31895 -0.890994 -0.85352 -0.952394 -0.844251 -0.782266 -2.06497 -2.01288 -1.74292 
-1.47296 -1.39458 -1.35433 -3.07129 -2.57147 -3.00589 -3.00654 -2.80095 -2.79158 
-2.81443 -2.85604 -3.14313 -3.43108 -3.48939 -3.32812 -3.59627 -3.57539 -3.86131 
-3.59518 -4.0119 -3.95968 -3.79156 -1.84462 -2.0731 -2.19568 -2.45132 -1.47388 
-0.911022 -0.345347 -0.771229 -1.10371 0 -0.290121 -0.158656 -0.14688 0 
-1.38778e-17 -0.544196 -0.448443 -3.08581 -2.80379 -2.78826 -2.49238 -2.47366 -2.46305 
-2.46128 -2.37239 -0.95469 -1.04463 -0.609747 -0.575555 -0.854793 -0.512458 -0.86091 
-0.648795 -0.437117 -0.429273 -0.516444 -2.10222 -1.84219 -1.58527 -1.20308 -1.11331 
-1.06588 -2.78679 -2.7931 -2.59744 -2.81711 -3.00125 -3.20311 -2.51403 -2.50125 
-2.52429 -2.56751 -2.63391 -2.91951 -3.20567 -3.4924 -3.43805 -3.29089 -3.3989 
-3.67954 -4.08015 -4.11276 -4.10007 -3.54613 -3.93981 -1.61867 -1.74428 -2.18703 
-2.0783 -2.58608 -1.50626 -1.1648 -0.87504 -0.426166 -0.239236 -0.764807 -0.500082 
-1.38778e-17 -0.00360078 4.33681e-19 -0.172035 -1.38778e-17 -0.115636 1.38778e-17 -2.5097 -2.52054 
-2.20727 -2.18734 -2.17635 -2.17447 -2.17198 -2.07785 -0.662158 -0.739938 -0.522876 
-0.459922 -0.297103 -0.187961 -0.509158 -0.399481 -0.133204 -0.128345 -0.524106 -0.365971 
-0.129502 -0.14251 -2.03853 -1.89061 -1.70491 -1.3284 -1.06406 -0.931981 -0.824988 
-0.763198 -2.5001 -2.50452 -2.9816 -2.66067 -3.36887 -3.228 -3.40677 -2.23156 
-2.21938 -2.20907 -2.27682 -2.72547 -2.34768 -3.00693 -3.11922 -3.25237 -3.53069 
-3.80639 -3.8409 -4.22139 -3.95356 -4.18218 -3.63393 -3.37268 -3.92508 -1.37601 
-1.52449 -1.87197 -2.46701 -2.23626 -2.30754 -2.20813 -1.19774 -1.27339 -1.03276 
-0.782684 -0.116734 -0.262352 -0.584522 -0.441006 -6.93889e-18 0 -0.112653 -0.129664 
0 -1.38778e-17 -2.23528 -2.22795 -1.92147 -1.89393 -1.88469 -1.88118 -1.87713 
-1.87837 -1.77357 -0.562356 -0.34601 -0.412873 -0.241767 0 0 0 
-0.201109 -0.139083 0 0 0 0 -6.93889e-18 0 1.38778e-17 
-6.93889e-18 0 1.38778e-17 -1.61898 -1.49059 -1.4414 -1.16978 -0.89006 -0.780744 
-0.614714 -0.603074 -0.586877 -0.57749 -2.21141 -2.21569 -3.05383 -2.88299 -2.69518 
-2.51301 -3.0034 -3.17407 -2.9729 -1.93639 -1.91902 -1.91393 -1.91791 -1.98507 
-2.41715 -2.46352 -2.56646 -2.84129 -2.06142 -2.08389 -2.97744 -3.13053 -3.40328 
-3.51546 -3.61066 -4.11862 -4.36534 -4.10173 -3.68133 -3.85107 -3.84346 -3.58352 
-3.31664 -1.30445 -1.4231 -1.36825 -1.62434 -1.49332 -1.93586 -2.33757 -2.1228 
-1.92151 -0.867567 -0.802425 -1.17862 -0.715709 -0.156677 0 0 -0.235873 
-0.190907 -0.140067 -0.421015 -0.247081 -0.232327 0 0 -0.0952762 -1.38778e-17 
1.38778e-17 -1.38778e-17 -1.38778e-17 -1.94466 -1.92477 -1.93942 -1.63637 -1.64678 -1.59229 
-1.5879 -1.58028 -1.57556 -1.51079 -0.0582346 1.38778e-17 0 1.38778e-17 -0.44869 
-0.114036 -1.34282 -1.23413 -1.20171 -1.27662 -1.36595 -1.24103 -1.02473 -0.756682 
-0.602298 -0.529881 -0.581998 -0.360708 -0.529588 -0.221303 -2.65272 -2.28624 -2.25086 
-2.84239 -2.94188 -3.29702 -3.27387 -1.63908 -1.61401 -1.61634 -1.69199 -1.7358 
-1.96175 -2.16627 -2.29583 -2.62698 -2.70886 -2.86809 -3.04294 -3.30383 -3.36048 
-3.46148 -3.57782 -4.15755 -4.30711 -4.04918 -3.94978 -3.57384 -3.79361 -1.28937 
-1.51582 -1.86168 -1.28283 -1.8799 -1.86238 -1.72748 -1.48559 -0.522434 -0.883967 
-0.983786 -1.00661 -0.424992 -1.38778e-17 1.38778e-17 0 -2.77556e-17 0 0 
-1.38778e-17 -0.143911 -1.38778e-17 -0.212342 1.38778e-17 -1.38778e-17 -0.169887 0 -1.38778e-17 
0 1.38778e-17 -1.64826 -1.63125 -1.43294 -1.40871 -1.27147 -1.26814 -1.26814 
-1.2437 -1.13328 -1.16552 0 -1.73472e-18 0 3.46945e-18 -0.906603 -1.07821 
-1.15787 -0.954991 -0.952757 -0.6823 -0.663517 -0.525388 -0.466866 -0.38944 -0.463226 
-0.479654 -0.143685 -0.0279723 3.46945e-18 -8.67362e-18 -6.93889e-18 -2.59527 -2.45351 -2.21762 
-2.75394 -2.5764 -2.93021 -3.04613 -3.25833 -1.33968 -1.46189 -1.31098 -1.30675 
-1.30813 -1.49428 -1.77647 -1.89156 -2.03103 -2.18965 -2.44618 -2.5616 -2.61288 
-2.79148 -2.49131 -3.17812 -3.49814 -3.79179 -4.30791 -4.25666 -4.04624 -4.04235 
-3.53383 -3.75509 -1.10396 -1.11733 -1.07952 -1.1469 -1.05304 -2.01034 -1.85903 
-1.49208 -1.47857 -0.441682 -0.615062 -0.493328 -0.94636 -0.65929 -0.122864 1.38778e-17 
-1.38778e-17 -0.160063 0 1.38778e-17 -1.33925 -1.34268 -1.29054 -1.10031 -0.979592 
-0.948905 -0.950461 -1.09953 -1.0572 -0.769058 -0.608727 -0.784088 -0.661719 -0.533885 
-0.827594 -0.405292 -0.390732 -0.299963 -0.219729 -0.328724 -0.288165 4.33681e-18 -8.67362e-19 
0 3.46945e-18 0 3.46945e-18 -2.57142 -2.21828 -2.92883 -2.91811 -3.24873 
-0.994532 -1.38781 -1.00359 -0.996707 -1.0168 -1.27537 -1.62222 -1.21701 -1.10771 
-1.77251 -1.93911 -2.31673 -2.36195 -2.53704 -2.70389 -2.96549 -3.23086 -3.61904 
-3.9881 -4.06742 -4.34529 -4.07874 -4.01911 -3.93619 -4.20524 -3.48559 -3.72649 
-3.82644 -3.45483 -1.00908 -0.920737 -1.0503 -1.33089 -1.08798 -0.657076 -1.88268 
-1.49749 -1.76236 -1.11021 -0.308284 -0.537035 -0.376467 -0.639544 -0.694321 -0.414347 
-0.112819 0 0 0 -1.04198 -1.01965 -1.00048 -0.957928 -0.952262 
-0.644509 -0.685281 -0.77118 -0.802723 -0.942008 -0.606494 -0.524155 -0.473393 -0.48668 
-0.462718 -0.458113 -0.422621 -0.327185 -0.10851 -0.0639719 -0.259875 -0.139171 -0.0667925 
-6.93889e-18 6.93889e-18 -0.11296 -0.141932 1.38778e-17 6.93889e-18 4.33681e-18 -2.28034 -2.56284 
-2.22316 -2.56817 -2.78428 -2.9037 -3.20188 -3.05298 -0.735918 -0.70099 -0.692548 
-0.681647 -0.687626 -1.03373 -0.694404 -1.35743 -1.51863 -0.946223 -0.821937 -1.69188 
-2.10615 -2.11294 -2.27748 -2.44942 -2.76022 -3.15032 -3.41816 -3.69918 -3.80625 
-4.10516 -4.19172 -4.2314 -4.27484 -4.15649 -3.90909 -3.79512 -3.97107 -3.18464 
-3.70355 -3.63834 -3.42905 -3.14633 -0.65547 -0.735086 -0.920232 -0.669967 -0.29322 
-0.260204 -0.536536 -1.8875 -2.23146 -1.51935 -1.12815 -1.30618 -0.697515 -0.216219 
-0.129025 -0.27265 -0.261351 -0.266623 -0.290739 0 -0.0155444 -0.720772 -0.618416 
-0.615224 -0.326558 -0.288372 -0.693262 -0.379595 -0.33468 -0.616909 -0.450165 -0.146169 
-0.29801 -0.158514 -0.357642 -0.0404735 -0.230053 0 -6.93889e-18 -3.46945e-18 0 
0 -1.38778e-17 0 1.38778e-17 -6.93889e-18 0 0 0 -0.0640325 
0 -3.46945e-18 -1.38778e-17 0 -2.56722 -2.88432 -2.53924 -2.83997 -0.439096 
-0.59282 -0.360583 -0.364329 -0.527185 -0.391 -1.09884 -1.26907 -1.44378 -0.684285 
-0.84943 -0.543692 -1.60426 -1.86052 -1.90092 -2.02282 -2.20552 -2.29965 -2.54131 
-2.89338 -3.22979 -3.58655 -3.62469 -3.94296 -4.00532 -4.19928 -4.1409 -4.2421 
-4.06814 -3.99498 -3.83696 -3.5985 -3.47059 -3.39953 -3.357 -3.1143 -0.708505 
-0.497826 -1.38778e-17 -1.38778e-17 -0.125753 -0.332174 1.38778e-17 1.38778e-17 -1.99879 -1.88535 
-2.22458 -1.5204 -1.49898 -1.14772 -0.741044 -1.15676 -0.359025 -0.122115 -0.117075 
1.38778e-17 0 0 0 -1.38778e-17 -1.73472e-18 -0.387733 -0.488251 -0.274312 
-0.268213 -0.176712 -0.280627 -0.283713 -0.229993 -0.273799 -0.252053 -0.0356488 3.46945e-18 
1.04083e-17 0 0 1.38778e-17 -3.46945e-18 0 0 1.38778e-17 0 
6.93889e-18 -3.46945e-18 -2.41604 -2.5216 -2.7707 -2.61377 -0.148902 -0.0718107 -0.380284 
-0.227516 -0.368781 -0.377162 -0.140958 -0.0560584 -1.02523 -1.19042 -0.432002 -0.27493 
-0.606544 -1.35404 -1.39413 -1.67007 -1.77532 -1.97246 -2.04902 -2.4162 -2.19968 
-2.64768 -3.03358 -3.37172 -3.11568 -3.45621 -3.83575 -4.14986 -3.93206 -4.20985 
-3.96946 -3.94051 -4.03402 -3.83028 -3.71016 -3.35571 -3.54899 -3.2591 -3.23565 
-3.15235 -3.1047 -3.08233 -2.8047 -2.89336 1.38778e-17 0 -0.0826285 -0.255166 
-1.87529 -1.65788 -2.20572 -1.52051 -0.867818 -1.00471 -0.75682 -0.371321 -1.17176 
-1.09882 0 0 0 0 0 1.38778e-17 1.38778e-17 0 
6.93889e-18 -0.0296112 -1.73472e-17 -1.04083e-17 6.93889e-18 0 -1.38778e-17 -0.0432098 1.38778e-17 
0 0 -1.38778e-17 0 -3.46945e-18 -3.46945e-18 1.73472e-18 0 -2.18815 
-2.50758 -2.48838 0 -0.0238464 1.38778e-17 0 6.93889e-18 -6.93889e-18 -0.0416224 
-0.0374633 -0.0399852 -0.0560977 -0.0594156 6.93889e-18 -6.93889e-18 0 0 -0.7778 
-0.937229 -1.1806 -0.187048 -0.362539 -1.5378 -1.75177 -1.8074 -2.00014 -2.38473 
-2.61362 -2.82934 -2.16548 -3.27598 -2.87895 -3.07713 -3.65157 -3.39314 -3.70164 
-4.04056 -4.07394 -3.77367 -3.74428 -3.89723 -3.64539 -3.62143 -3.49253 -3.13009 
-3.16375 -2.94563 -2.90359 -2.84969 -2.8253 -2.82566 -2.79073 -2.4732 -2.76943 
-6.93889e-18 -8.67362e-18 3.46945e-18 -6.93889e-18 -1.86749 -1.7756 -1.52148 -1.85732 -0.776403 
-0.800077 -0.378139 -0.548814 -0.027962 1.73472e-18 -1.17939 -0.818031 0 -3.46945e-18 
-3.46945e-18 -2.16969 -1.85386 -1.96727 0 3.46945e-18 0 0 0 
0 0 0 0 0 -0.523242 -0.691668 -0.783388 -1.09357 
-1.31477 6.93889e-18 0 -0.109866 -2.08167e-17 -1.5481 -1.58997 -1.81858 -1.93787 
-2.46247 -2.24343 -2.66019 -1.94702 -3.15478 -2.85165 -2.85966 -3.46158 -3.17055 
-3.90767 -4.08804 -3.98189 -3.89148 -4.10223 -3.48486 -3.79142 -3.48863 -3.55177 
-3.56862 -3.35895 -3.27461 -2.99928 -2.91416 -2.77203 -2.76147 -2.63817 -2.5972 
-2.56883 -2.57795 -2.15181 -2.45754 -2.13644 -2.43078 -1.51518 -1.23961 -0.614105 
-0.651141 -0.403014 -0.430749 -0.0601903 0 1.73472e-18 -3.46945e-18 -1.17668 -0.826757 
-2.0246 -1.84111 -1.82661 -0.272998 -0.464209 -0.887273 -0.687343 -1.11389 -1.40233 
0 -0.0565092 -1.38778e-17 0 -1.63224 -1.63658 -2.55521 -1.95662 -2.25671 
-1.64696 -2.87655 -2.56435 -2.57934 -3.34724 -3.19062 -2.89428 -3.79798 -3.8233 
-4.05346 -3.86644 -3.74264 -3.50571 -3.69439 -3.43267 -3.36052 -3.41376 -3.20604 
-3.09663 -3.06573 -2.6952 -2.54075 -2.66247 -2.40243 -2.34048 -2.30306 -2.30877 
-2.11601 -2.00519 -2.36277 -2.08837 -1.50985 -1.27832 -1.17288 -0.452792 -0.667981 
-0.470752 -0.0500022 3.46945e-18 -0.833496 -1.50236 -1.81146 -1.49317 -0.267931 -0.94755 
-0.537444 -1.11462 -1.23572 6.93889e-18 0 6.93889e-18 -1.33702 -1.35033 -1.65383 
-1.97131 -1.67506 -2.26798 -2.27903 -2.5977 -3.21265 -2.89927 -3.52913 -3.84896 
-3.67641 -3.52402 -3.33141 -3.20081 -3.16822 -3.00496 -2.85265 -2.4669 -2.62939 
-2.30198 -2.34655 -2.22185 -2.07306 -2.02236 -2.02009 -2.13199 -1.89275 -2.09316 
-1.78331 -1.7741 -2.06087 -1.75115 -1.27349 -1.17033 -0.840093 -0.0802996 -0.0743336 
-0.652385 -0.486174 -0.147594 -6.93889e-18 -6.93889e-18 0 -1.79527 -1.47859 -1.1689 
-1.16773 0 -0.160731 -0.832216 -0.889742 -0.469227 -0.661458 -0.803443 -1.01058 
-1.08488 -1.06111 -1.35431 -1.381 -1.9798 -1.68126 -2.27635 -2.00152 -2.60161 
-2.91832 -3.23525 -3.49217 -3.55418 -3.24809 -3.71989 -3.82868 -3.55908 -3.49032 
-3.13617 -2.97055 -2.79887 -2.22103 -2.39072 -2.13182 -2.09443 -2.46715 -2.16475 
-1.89364 -1.79002 -1.72839 -1.72167 -2.07412 -1.77662 -1.98202 -1.69028 -1.4551 
-1.43681 -1.87783 -1.73467 -1.42405 -0.84249 -0.593413 -6.93889e-18 1.38778e-17 0 
-0.0247413 -0.500055 -0.163864 -1.16023 -1.13926 -1.06629 1.38778e-17 -1.38778e-17 -0.196172 
-0.339236 -0.40802 -0.383144 -0.674275 -0.723795 -0.748236 -0.756338 -1.0899 -0.842076 
-0.774428 -1.38505 -1.7045 -1.41032 -2.3228 -2.02192 -1.70819 -2.6223 -2.93921 
-2.94596 -3.25842 -3.28134 -2.96169 -3.57805 -3.60216 -3.64628 -3.29984 -2.93517 
-3.10299 -2.83593 -2.75722 -2.5753 -2.01904 -1.98634 -2.11815 -2.04511 -1.76823 
-2.32365 -1.61133 -1.4834 -1.48215 -1.45933 -1.42619 -1.87379 -1.46406 -1.56878 
-1.1163 -1.40553 -1.7322 -1.68979 -1.42248 -1.10656 -1.10596 -1.33676 -1.1051 
-0.508765 -0.481478 -0.834876 -0.510388 0 0 -6.93889e-18 -0.174384 -1.38778e-17 
0 -0.88963 -0.812556 -1.38778e-17 -0.163735 -0.0579349 -0.343963 -0.108365 -0.125247 
-0.336091 -0.431321 -0.442822 -0.473267 -0.489226 -1.11481 -0.801867 -0.819486 -0.4945 
-1.41435 -2.34383 -2.04491 -1.72423 -1.74801 -2.64125 -2.64779 -2.66418 -2.98421 
-3.30456 -3.60322 -3.46056 -3.2612 -2.72249 -2.89348 -3.0531 -2.52274 -1.93848 
-1.89735 -1.63072 -2.05064 -1.50152 -1.5006 -1.48948 -2.22333 -1.16031 -1.40971 
-1.39809 -1.39381 -1.05227 -1.1184 -1.3365 -1.33269 -0.801905 -1.02802 -0.787663 
-1.4227 -1.37707 -1.42551 -1.10636 -0.784013 -0.782812 -0.333693 -0.817899 -0.497715 
-0.178619 0 -1.38778e-17 2.77556e-17 -0.603802 1.38778e-17 3.46945e-18 -0.0112758 0 
0 0 0 -6.93889e-18 6.93889e-18 -1.38778e-17 -0.156174 -0.201488 -0.211249 
-0.228394 -1.12106 -0.520541 -0.51778 -0.523742 -0.828126 -0.232744 -1.43054 -2.34967 
-2.05266 -1.75515 -1.45375 -1.45853 -2.36627 -2.6868 -3.007 -3.32763 -3.40363 
-3.35106 -3.32818 -2.6391 -2.46387 -2.83019 -3.25756 -3.19701 -2.97683 -2.26759 
-1.87021 -1.81574 -1.48068 -1.79665 -1.78726 -1.97536 -1.30107 -1.13702 -2.20852 
-1.06973 -0.978422 -0.94971 -0.924133 -1.23824 -0.880774 -0.85447 -1.04444 -0.474693 
-1.36679 -1.10952 -0.924653 -0.619585 -0.779804 -0.176227 -0.133966 -0.484168 -0.164633 
1.38778e-17 1.38778e-17 -0.48125 0 0 0 1.38778e-17 -0.128098 -0.0958757 
0 -1.38778e-17 0 -1.13683 -0.227613 -0.221442 -0.53109 -0.416584 -0.839019 
-2.77556e-17 0 0 -0.106277 -1.15775 -1.77214 -2.06864 -1.4751 -1.16367 
-2.38906 -2.09057 -2.70922 -3.02953 -3.05264 -3.26429 -3.07628 -3.23691 -2.59865 
-2.39033 -2.17381 -2.59796 -2.73462 -3.15586 -3.02451 -2.77005 -1.48764 -1.44154 
-1.29854 -1.74472 -1.7546 -1.38486 -1.74815 -1.90021 -1.02623 -1.04084 -1.05109 
-0.805106 -0.695877 -0.670083 -0.883252 -0.746502 -0.425497 -0.514141 -1.24673 -0.857148 
-0.882945 -0.211008 -0.460622 -0.152283 -1.22849 -1.11855 -0.790099 -0.78142 -0.454504 
-0.451244 0 -1.38778e-17 -1.38778e-17 -0.162711 -1.38778e-17 0 0 0 
0 -0.859488 -0.221428 -0.533973 -0.227319 -0.552843 0 0 -1.79294 
-1.17739 -1.49621 -1.19878 -0.87 -2.41134 -2.11316 -2.73173 -2.75474 -2.77798 
-3.0111 -2.98684 -2.158 -2.15844 -2.27641 -2.60489 -2.73762 -2.53394 -2.44646 
-1.42958 -1.15843 -1.03664 -1.02897 -1.68234 -1.37424 -1.00242 -1.32509 -1.02449 
-1.74268 -1.60602 -2.09914 -1.74498 -0.964839 -0.646925 -0.76516 -0.566211 -0.5144 
-0.488091 -0.448361 -0.416769 -0.327776 -0.0244889 -0.12921 -0.0631807 -0.718846 -0.958553 
-1.02807 -0.906074 -0.522511 -0.24216 -0.140807 0 1.38778e-17 -1.38778e-17 -1.38778e-17 
-1.11975 -0.806527 -0.587377 -0.805798 -0.481185 -0.458332 -0.156683 -1.38778e-17 0 
0 -0.0439629 -0.239039 -1.38778e-17 -0.553588 -0.26506 -1.8155 -0.880655 -0.902221 
-1.51869 -1.22254 -0.92717 -2.43386 -2.13622 -2.45708 -2.47999 -2.80121 -2.50266 
-2.80657 -2.16779 -1.9711 -1.80814 -2.43137 -2.69796 -2.44025 -2.40432 -2.46132 
-2.10096 -0.953113 -0.676383 -1.38481 -1.04746 -0.702304 -0.711317 -0.687894 -1.75165 
-1.40516 -0.632517 -0.667322 -0.305153 -0.341262 -0.388844 -0.237776 -0.206111 -0.460328 
-0.027124 -6.93889e-18 0 0 -0.361434 -0.112279 -0.117592 6.93889e-18 -1.38778e-17 
-0.784014 -0.663752 -0.60056 -0.625276 -0.17318 0 -0.677608 -0.4638 -0.502295 
-0.169183 -0.179276 0 0 3.46945e-18 0 0 -0.288186 -0.602996 
1.38778e-17 1.38778e-17 0 -1.83918 -0.627839 -1.54213 -1.24626 -0.951624 -0.653474 
-2.15959 -2.18276 -2.20509 -2.5137 -2.18527 -2.1115 -1.7782 -2.14415 -2.52466 
-2.36543 -2.33657 -2.13603 -2.06282 -2.00653 -0.358281 -1.12476 -1.06474 -0.736257 
-0.405887 -0.419271 -0.681685 -0.380168 -1.61564 -1.43326 -1.40889 -1.09825 -0.236428 
6.93889e-18 1.21431e-17 -6.93889e-18 -0.0360471 -1.73472e-18 -0.15892 -3.46945e-18 0 -1.73472e-18 
3.46945e-18 0 1.38778e-17 -0.241791 -0.396612 -0.19087 3.46945e-18 1.38778e-17 0 
-0.00392492 0 -0.522854 -0.504062 -0.20715 0 0 0 -1.38778e-17 
-0.236008 -0.293542 0 -0.321967 -1.8629 -0.350746 -1.56594 -1.27007 -0.974957 
-0.677988 -0.378534 -1.88642 -1.9085 -2.22191 -2.0577 -1.7986 -1.79501 -1.79081 
-2.22574 -2.24869 -2.27603 -2.022 -1.91642 -1.74485 -0.054417 -0.76299 -0.106322 
-0.113089 -0.0791976 -0.433379 -0.135488 -1.44226 -1.46258 -1.12824 -0.792962 -0.805113 
-0.999564 1.38778e-17 0 0 -6.93889e-18 0 -3.46945e-18 -0.37339 -0.211059 
2.77556e-17 -2.77556e-17 0 0 4.33681e-19 -0.281189 0 0 -0.0208232 
0 -0.0464084 -1.59024 -0.077484 -1.29483 -0.999376 -0.703443 -0.406708 -1.61247 
-1.92817 -1.63195 -1.94872 -1.7324 -1.63655 -2.21105 -2.02592 -1.84977 -1.79594 
-1.69321 -1.54943 -6.93889e-18 -0.462993 -0.647221 -1.38778e-17 1.38778e-17 1.38778e-17 -1.38778e-17 
-1.38778e-17 0 0 -0.165374 -1.13996 -1.40469 -1.32725 -1.24562 -0.823208 
-0.525178 -0.840051 -0.0117014 -0.0129408 -0.0234699 0 6.93889e-18 0 0 