# vtk DataFile Version 4.2
3D Slicer output. SPACE=LPS
ASCII
DATASET POLYDATA
POINTS 6153 float
-134.413 -33.0719 10.3352 -134.171 -33.1754 10.2582 -134.171 -33.3132 10.3937 
-134.492 -33.0719 10.3937 -134.458 -33.0488 10.3417 -133.963 -33.2128 10.2212 
-133.671 -33.4965 10.3937 -134.171 -33.5719 10.6623 -133.671 -33.5719 10.4741 
-134.608 -32.9943 10.3937 -134.671 -33.0719 10.5267 -134.671 -32.9731 10.417 
-133.671 -33.2881 10.19 -133.416 -33.2802 10.2195 -133.171 -33.4461 10.3937 
-133.171 -33.5719 10.4899 -134.171 -33.9097 10.8937 -134.671 -33.6045 10.8937 
-133.962 -34.0719 10.8937 -133.671 -34.0719 10.8103 -133.171 -34.0719 10.7612 
-134.824 -33.5719 10.8937 -135.171 -33.0719 10.7153 -134.725 -32.965 10.4281 
-133.171 -33.3 10.2602 -132.993 -33.3125 10.3246 -132.918 -33.3956 10.3937 
-132.671 -33.5719 10.5304 -134.171 -34.0719 10.982 -134.671 -34.0719 11.1808 
-133.671 -34.2369 10.8937 -133.671 -34.5719 11.0634 -134.171 -34.5719 11.2868 
-133.171 -34.3318 10.8937 -132.671 -34.2007 10.8937 -132.671 -34.0719 10.8253 
-135.171 -33.475 10.8937 -135.171 -34.0719 11.2422 -135.171 -33.5719 10.93 
-135.671 -33.2402 10.8937 -135.671 -33.0719 10.819 -135.268 -32.8554 10.5761 
-135.171 -32.8717 10.5455 -135.536 -32.827 10.6107 -132.671 -33.4281 10.4433 
-132.171 -33.5719 10.5303 -132.171 -34.0719 10.7868 -135.171 -34.3066 11.3937 
-134.671 -34.4701 11.3937 -134.487 -34.5719 11.3937 -134.171 -34.7345 11.3937 
-133.671 -35.0557 11.3937 -133.634 -35.0719 11.3937 -133.171 -35.0719 11.2819 
-133.171 -34.5719 11.0095 -132.671 -34.5719 11.0791 -132.171 -34.3217 10.8937 
-135.671 -33.5719 11.0606 -135.708 -34.0719 11.3937 -135.846 -33.0719 10.8937 
-135.751 -32.7993 10.6913 -135.671 -32.8111 10.6644 -132.48 -33.4326 10.446 
-132.171 -33.4444 10.4571 -131.671 -33.5719 10.438 -131.671 -34.0719 10.7293 
-135.171 -34.5719 11.5705 -135.671 -34.5719 11.7473 -134.671 -34.5719 11.4395 
-134.171 -35.0719 11.5671 -134.671 -35.0719 11.7101 -133.171 -35.2715 11.3937 
-133.671 -35.5719 11.6881 -132.671 -35.0719 11.2354 -132.171 -34.5719 11.0002 
-132.171 -35.0719 11.1882 -131.671 -34.4296 10.8937 -136.171 -33.6544 11.3937 
-136.171 -33.0719 11.1103 -136.171 -34.0719 11.618 -136.064 -32.7993 10.8937 
-136.171 -32.7911 10.9605 -131.867 -33.4789 10.4207 -131.671 -33.457 10.3482 
-131.493 -33.5719 10.3937 -131.171 -34.3706 10.8937 -131.171 -34.0719 10.7281 
-135.671 -34.7842 11.8937 -135.171 -35.069 11.8937 -136.053 -34.5719 11.8937 
-134.671 -35.377 11.8937 -134.361 -35.5719 11.8937 -134.171 -35.5719 11.8306 
-132.671 -35.3802 11.3937 -133.171 -35.5719 11.5765 -134.171 -35.6943 11.8937 
-133.671 -35.9138 11.8937 -131.671 -34.5719 10.9542 -131.671 -35.0719 11.1956 
-132.171 -35.4346 11.3937 -131.671 -35.3815 11.3937 -131.171 -34.5719 10.9878 
-136.579 -33.0719 11.3937 -136.671 -33.5719 11.7523 -136.504 -32.7386 11.2953 
-136.635 -32.766 11.3902 -136.548 -34.0719 11.8937 -136.171 -34.5719 11.9463 
-136.671 -33.8461 11.8937 -131.521 -33.4937 10.3395 -131.447 -33.5003 10.3443 
-131.278 -33.5821 10.3937 -130.671 -34.1842 10.8937 -130.671 -34.5719 11.0621 
-130.671 -34.0719 10.8345 -131.171 -33.6292 10.4227 -131.084 -33.6211 10.4267 
-130.715 -33.6155 10.5198 -135.671 -35.0719 12.1117 -135.171 -35.5719 12.1915 
-136.171 -35.1493 12.3937 -134.671 -35.5719 12.0098 -134.171 -36.0719 12.0943 
-134.671 -36.0719 12.2506 -132.671 -35.5719 11.5041 -133.171 -36.0719 11.9183 
-133.052 -36.0719 11.8937 -133.671 -36.0719 11.9943 -131.171 -35.361 11.3937 
-131.171 -35.0719 11.2236 -132.171 -35.5719 11.4685 -131.671 -35.5719 11.5035 
-131.171 -35.5719 11.5236 -136.671 -33.0719 11.4612 -136.671 -32.7836 11.4189 
-136.873 -33.5719 11.8937 -136.671 -34.5719 12.2844 -136.671 -34.0719 11.9883 
-136.671 -34.701 12.3937 -136.254 -35.0719 12.3937 -137.171 -33.5719 12.0696 
-130.469 -34.0719 10.8937 -130.671 -35.0719 11.2764 -130.171 -34.5719 11.1866 
-130.671 -33.6159 10.5294 -135.711 -35.5719 12.3937 -135.671 -35.6063 12.3937 
-135.171 -35.9303 12.3937 -134.991 -36.0719 12.3937 -136.171 -35.5719 12.6714 
-134.671 -36.3582 12.3937 -134.329 -36.5719 12.3937 -134.171 -36.6437 12.3937 
-133.671 -36.5719 12.2656 -132.671 -36.0719 11.8138 -132.171 -36.0719 11.7496 
-133.171 -36.5719 12.1819 -132.671 -36.2192 11.8937 -130.671 -35.3142 11.3937 
-130.671 -35.5719 11.5211 -131.671 -36.0719 11.7323 -131.171 -36.0719 11.7604 
-137.171 -33.157 11.8647 -137.037 -33.0719 11.7319 -137.171 -33.2303 11.8937 
-136.857 -32.8858 11.5707 -136.801 -34.5719 12.3937 -137.159 -34.0719 12.3937 
-136.671 -35.0719 12.6769 -137.53 -33.5719 12.3937 -130.171 -34.0719 10.9602 
-130.654 -33.6153 10.5341 -130.188 -33.5996 10.6516 -130.171 -33.9377 10.8937 
-130.182 -35.0719 11.3937 -130.171 -35.0632 11.3937 -129.671 -34.7415 11.3937 
-129.671 -34.5719 11.3095 -129.671 -34.0719 11.0294 -135.671 -36.0719 12.7034 
-135.171 -36.0719 12.4765 -135.171 -36.5719 12.7672 -136.498 -35.5719 12.8937 
-136.171 -35.895 12.8937 -136.671 -35.3835 12.8937 -135.973 -36.0719 12.8937 
-134.671 -36.5719 12.5055 -134.171 -37.0719 12.5985 -134.671 -37.0719 12.7706 
-133.671 -36.8227 12.3937 -132.171 -36.3892 11.8937 -133.171 -36.9815 12.3937 
-132.992 -37.0719 12.3937 -132.671 -36.5719 12.0802 -130.171 -35.5719 11.6063 
-130.671 -36.0719 11.7735 -131.671 -36.4608 11.8937 -131.171 -36.4082 11.8937 
-130.671 -36.3674 11.8937 -137.2 -33.1689 11.8937 -137.248 -33.205 11.9737 
-137.537 -33.5433 12.3937 -137.171 -34.5719 12.6941 -137.671 -34.1472 12.8937 
-136.985 -35.0719 12.8937 -137.171 -34.8706 12.8937 -137.671 -33.7366 12.7582 
-137.551 -33.5719 12.4403 -137.538 -33.5458 12.3997 -130.171 -33.5986 10.6562 
-129.671 -33.8383 10.8937 -129.671 -35.0719 11.5348 -129.415 -34.5719 11.3937 
-129.171 -35.0719 11.5797 -129.171 -34.0719 11.205 -135.671 -36.3303 12.8937 
-135.39 -36.5719 12.8937 -135.171 -36.8051 12.8937 -136.671 -36.0719 13.2979 
-136.671 -35.5719 13.0195 -136.171 -36.0719 13.0045 -137.171 -35.0719 13.0402 
-135.671 -36.5719 13.0841 -136.171 -36.6445 13.3937 -134.919 -37.0719 12.8937 
-134.671 -37.2769 12.8937 -134.315 -37.5719 12.8937 -134.171 -37.5719 12.834 
-133.671 -37.0719 12.5137 -133.671 -37.5719 12.6712 -132.171 -36.5719 11.9789 
-133.171 -37.0719 12.4386 -132.671 -37.2925 12.3937 -133.171 -37.5719 12.6016 
-132.671 -37.0719 12.3032 -132.171 -37.0719 12.2011 -130.171 -36.0719 11.8204 
-129.875 -36.0719 11.8937 -129.671 -35.5719 11.7455 -130.171 -36.2232 11.8937 
-131.671 -36.5719 11.9381 -131.171 -36.5719 11.9574 -130.671 -36.5719 11.9788 
-130.171 -36.5719 12.0756 -137.405 -34.5719 12.8937 -138.052 -34.0719 13.3937 
-137.671 -34.5719 13.1642 -137.713 -33.7991 12.8937 -137.813 -33.8839 13.1226 
-138.035 -33.9462 13.3937 -137.671 -34.9123 13.3937 -130.119 -33.6 10.6644 
-129.671 -33.62 10.7411 -129.209 -33.5923 10.9018 -129.171 -34.4089 11.3937 
-129.171 -34.5719 11.4549 -129.171 -35.5719 11.8149 -129.115 -35.0719 11.5895 
-129.109 -35.01 11.5813 -129.067 -34.5719 11.4836 -128.977 -34.0719 11.2854 
-129.171 -33.6251 10.9346 -128.859 -33.7598 11.1505 -135.171 -37.0719 13.0506 
-136.802 -36.0719 13.3937 -136.671 -36.2448 13.3937 -137.196 -35.5719 13.3937 
-136.281 -36.5719 13.3937 -137.568 -35.0719 13.3937 -135.671 -37.1027 13.3937 
-136.171 -37.0719 13.7301 -134.671 -37.5719 13.0571 -135.171 -37.5719 13.2884 
-134.171 -37.6833 12.8937 -134.171 -38.0719 13.0657 -134.671 -38.0719 13.2192 
-133.671 -38.031 12.8937 -133.582 -38.0719 12.8937 -131.671 -37.0719 12.1693 
-132.671 -37.5719 12.5187 -132.171 -37.4102 12.3937 -133.171 -38.0719 12.8079 
-132.671 -38.0719 12.7516 -129.671 -36.0719 11.9442 -129.671 -36.5719 12.1717 
-129.671 -35.9407 11.8937 -129.171 -35.7474 11.8937 -131.171 -37.0719 12.2085 
-130.671 -37.0719 12.2408 -130.171 -37.0719 12.3234 -137.89 -34.5719 13.3937 
-138.171 -34.0719 13.6227 -138.123 -33.9435 13.5639 -138.171 -34.8964 13.8937 
-137.671 -35.0719 13.4906 -129.025 -34.3012 11.3937 -129.055 -34.4469 11.4399 
-129.04 -35.5814 11.8357 -129.042 -35.5719 11.8299 -129.055 -35.4559 11.7804 
-135.309 -37.5719 13.3937 -137.171 -36.0719 13.7209 -137.171 -36.3175 13.8937 
-136.671 -36.5719 13.6802 -137.671 -35.5719 13.7348 -135.671 -37.5719 13.7034 
-136.35 -37.0719 13.8937 -136.171 -37.2734 13.8937 -135.171 -37.8274 13.3937 
-134.171 -38.5719 13.2262 -133.671 -38.5719 13.0987 -135.029 -38.0719 13.3937 
-134.671 -38.5027 13.3937 -133.171 -38.2771 12.8937 -131.671 -37.4439 12.3937 
-132.171 -37.5719 12.4819 -132.171 -38.0719 12.6856 -132.671 -38.4641 12.8937 
-132.503 -38.5719 12.8937 -129.171 -36.0719 11.9915 -129.671 -37.0719 12.347 
-129.171 -36.5719 12.192 -129.021 -35.7055 11.8937 -128.978 -35.8726 11.9682 
-131.171 -37.5719 12.4172 -130.671 -37.3971 12.3937 -130.171 -37.2437 12.3937 
-129.671 -37.2356 12.3937 -138.171 -34.5719 13.7713 -138.23 -34.0719 13.7428 
-138.266 -34.2169 13.8583 -138.171 -33.9648 13.6537 -138.264 -34.5719 13.8937 
-138.671 -34.8439 14.3937 -138.568 -35.0719 14.3937 -138.109 -35.0719 13.8937 
-137.873 -35.5719 13.8937 -137.398 -36.0719 13.8937 -137.671 -35.796 13.8937 
-137.171 -36.5719 14.082 -137.671 -36.0719 14.0872 -136.91 -36.5719 13.8937 
-136.671 -36.7608 13.8937 -135.9 -37.5719 13.8937 -135.671 -37.8916 13.8937 
-136.671 -37.0719 14.1754 -136.171 -37.5719 14.1241 -135.171 -38.0719 13.4969 
-134.609 -38.5719 13.3937 -134.288 -39.0719 13.3937 -134.171 -39.0719 13.3457 
-133.671 -39.0719 13.1752 -133.171 -38.5719 12.9839 -133.171 -39.0719 13.0665 
-135.171 -38.5719 13.781 -131.671 -37.5719 12.4596 -131.671 -38.0719 12.6312 
-132.171 -38.5719 12.8128 -131.671 -38.5719 12.6965 -132.671 -38.5719 12.9236 
-132.171 -38.8606 12.8937 -132.671 -39.0719 13.0173 -128.941 -36.0719 12.0354 
-129.171 -37.2115 12.3937 -129.171 -37.0719 12.3398 -129 -37.0719 12.3937 
-128.869 -36.6047 12.314 -128.871 -36.5719 12.2999 -128.899 -36.2993 12.1346 
-131.171 -38.0719 12.5512 -130.671 -37.5719 12.4486 -130.171 -37.5719 12.4896 
-129.671 -37.5719 12.4891 -129.171 -37.5719 12.5272 -138.292 -34.2269 13.8937 
-138.72 -34.5719 14.3937 -138.566 -34.236 14.2504 -138.671 -34.3019 14.3937 
[...]
POINT_DATA 6153
SCALARS scalars float
LOOKUP_TABLE default
0 -1.38778e-17 -0.235261 -0.0578565 6.93889e-18 2.77556e-17 -0.318721 -0.586275 -0.41912 
-3.46945e-18 -0.148192 -6.93889e-18 2.77556e-17 2.77556e-17 -0.19655 -0.351903 -0.993325 -0.789654 
-1.10023 -1.01279 -0.904532 -0.769547 -0.262616 -1.04083e-17 0 2.77556e-17 1.38778e-17 
-0.336914 -1.17575 -1.3349 -1.19448 -1.56391 -1.75609 -1.18931 -1.00662 -0.867907 
-0.698964 -1.38988 -0.801225 -0.509243 -0.330176 0 -2.77556e-17 0 1.38778e-17 
-0.309234 -0.765345 -1.66887 -1.78211 -1.85062 -1.94919 -2.14091 -2.14834 -2.00835 
-1.4495 -1.40413 -1.01564 -0.874614 -1.46031 -0.363196 -2.77556e-17 2.77556e-17 0 
0 -0.171898 -0.64357 -1.98727 -2.04337 -1.89185 -2.32302 -2.45624 -2.23315 
-2.72607 -1.8943 -1.27317 -1.78417 -1.01843 -0.993362 -0.398749 -1.34919 1.38778e-17 
-2.77556e-17 0 -2.77556e-17 -0.106872 -0.899457 -0.563696 -2.19791 -2.5798 -1.78437 
-2.81068 -2.93976 -2.88054 -2.2338 -2.57895 -3.01629 -3.11895 -1.16771 -1.71301 
-2.19509 -2.07687 -1.11767 -0.314406 -0.639686 0 1.38778e-17 -1.08563 -1.70176 
-0.835103 0 1.38778e-17 -6.93889e-18 -0.683438 -1.09939 -0.558467 -6.93889e-18 -1.38778e-17 
0 -2.39922 -3.10556 -2.10869 -3.03646 -3.43796 -3.58473 -2.45151 -3.17448 
-3.14006 -3.30357 -1.9975 -1.6642 -2.34935 -2.29459 -2.08555 -0.271722 1.38778e-17 
-0.497801 -1.34958 -0.995977 -1.44285 -1.9957 -0.290237 -0.567357 -1.58101 -1.11201 
-2.77556e-17 -2.73073 -2.78299 -3.36118 -3.58829 -2.43023 -3.90151 -4.03773 -4.07392 
-3.8623 -3.03063 -2.91577 -3.72857 -3.19528 -1.57491 -1.59092 -2.65501 -2.16542 
-6.93889e-18 0 -0.0857391 0 -1.26085 -0.64812 -1.72658 -0.0273657 -0.569337 
3.46945e-17 -2.08167e-17 -0.422392 -1.07919 -1.06842 -0.590861 -0.627038 -0.550123 -3.13543 
-3.46521 -3.8426 -2.23014 -2.68573 -1.97531 -2.94815 -4.1407 -4.53982 -4.54788 
-4.13839 -3.21258 -4.18055 -4.15711 -3.5876 -1.09227 -1.67787 -2.74245 -2.2449 
-1.75113 -6.93889e-18 0 0 -1.02517 -0.386502 -1.53804 -1.26562 2.77556e-17 
3.46945e-18 0 -6.93889e-18 -0.282365 -0.556165 -0.358969 -0.0581059 -0.196824 -3.33908 
-3.70446 -4.02363 -2.54474 -2.12893 -2.82892 -1.43169 -3.5346 -3.30445 -4.38981 
-4.70658 -5.13604 -5.0816 -4.40886 -4.81353 -3.25669 -4.27944 -3.83168 -4.31433 
-3.83846 -3.34376 -1.19243 -0.905524 -0.600125 -1.23084 -2.77044 -2.2866 -1.8018 
-1.30887 -0.886768 -0.15395 -0.739262 0 0 0 -1.02982 1.38778e-17 
0 -3.46945e-18 -0.124539 -0.108532 -0.137776 0 0 0 0 
0 0 -4.23527 -2.47484 -2.69115 -1.84089 -3.1814 -1.21969 -3.96947 
-3.67169 -4.93872 -4.63853 -5.20596 -5.31555 -5.3354 -4.80816 -4.71915 -2.84762 
-3.81671 -3.32887 -4.30653 -3.80612 -0.709742 -0.811367 -0.677603 -0.165988 -2.34658 
-1.84618 -1.3411 -0.625166 -0.158375 1.38778e-17 -0.773145 -1.16758 0 0 
1.38778e-17 1.38778e-17 0 -4.56088 -2.28667 -2.50148 -2.97516 -1.60405 -4.36597 
-3.57976 -3.84696 -4.84774 -5.33918 -4.83247 -5.12824 -5.68686 -4.3124 -2.82916 
-3.3189 -3.3067 -3.82067 -3.65966 -0.225606 -0.841313 -0.316735 2.77556e-17 -1.38778e-17 
-2.32586 -1.83375 -1.33729 -0.83985 -0.487515 1.38778e-17 0 -1.38778e-17 -0.443435 
-0.521951 -0.767822 -0.958385 -1.51113 -2.17467 -1.80158 -2.72576 -2.04666 -2.85494 
-3.14303 -4.24617 -4.6383 -3.41834 -4.1073 -5.05022 -5.68083 -5.11492 -5.04491 
-4.76304 -4.32841 -4.3721 -5.47394 -2.82111 -2.80852 -3.32771 -2.83226 -3.82773 
-3.35263 -3.87318 0 -0.347414 -0.350647 -0.171972 -2.77556e-17 -2.77556e-17 2.77556e-17 
-2.31427 -1.8252 -1.32367 -0.82735 -0.328954 -2.77556e-17 -0.247624 -6.93889e-18 -0.0800294 
-0.181144 -0.728298 -1.29463 -1.38436 -2.54624 -3.17108 -2.39448 -3.20309 -1.86554 
-1.76804 -4.84013 -4.5509 -4.79209 -3.70618 -3.93554 -5.41169 -5.37974 -4.89503 
-4.55453 -4.38466 -4.11159 -3.85203 -5.62601 -2.33847 -2.88155 -2.39119 -3.37445 
-3.25209 -3.3913 0 1.38778e-17 -1.38778e-17 0 -1.82007 -1.85026 -1.32084 
-0.817537 -0.309688 0 0 0 0 -0.656573 0 -0.195101 
0 0 -1.19555 -1.31757 -1.73489 -2.94493 -2.49704 -3.63176 -2.23896 
-1.83823 -4.32176 -4.92908 -4.98827 -5.18635 -5.2257 -3.85828 -4.31178 -5.32383 
-5.61492 -5.17566 -5.00409 -4.68073 -4.06145 -4.33384 -3.72287 -3.43703 -3.21403 
-3.28348 -5.77806 -5.79438 -1.90299 -3.16241 -2.89196 -2.40027 -1.36176 -1.41846 
-0.863549 -0.349742 1.38778e-17 1.38778e-17 1.38778e-17 -1.17334 -0.590004 -1.09093 -0.574274 
-0.19142 0 1.38778e-17 -1.6673 -1.86588 -2.19254 -2.75811 -3.45398 -2.30104 
-4.09432 -4.76323 -5.14522 -5.66547 -4.6512 -4.7552 -5.47037 -5.55331 -4.00962 
-3.96901 -3.60492 -3.34399 -3.04552 -2.83735 -3.15554 -2.70383 -2.86733 -5.98811 
-1.90656 -1.41237 -2.36818 -1.8687 -0.924512 -0.921644 -0.408138 -0.219044 1.38778e-17 
-1.63164 -1.06634 -0.539535 -0.168883 1.38778e-17 -1.56554 -2.15534 -2.7083 -2.78006 
-3.3197 -3.97454 -4.04297 -3.13192 -4.28773 -4.65439 -5.29573 -5.43342 -5.52651 
-4.2959 -4.36483 -5.14479 -5.92448 -5.57283 -5.21287 -3.57145 -3.91526 -3.22036 
-2.96089 -2.65018 -2.47343 -2.23033 -2.04217 -2.41671 -2.23306 -5.88491 -1.372 
-1.85312 -0.410248 -0.882653 -0.373345 -0.0934997 -1.38778e-17 0 -1.47398 -1.041 
-0.516352 -1.01766 -0.0943413 0 -2.13283 -1.55779 -2.31601 -3.25324 -2.6612 
-3.28805 -3.82612 -4.48277 -4.41357 -4.56287 -4.8992 -5.0801 -5.81602 -5.67971 
-4.00123 -4.79277 -4.62516 -6.14994 -5.70402 -5.20277 -3.17628 -3.53178 -3.63351 
-2.84799 -2.57743 -2.17337 -1.80194 -1.62934 -1.94426 -1.51372 -1.87036 -1.76551 
-1.58203 -1.3473 -0.843833 -0.344303 -2.77556e-17 2.77556e-17 0 6.93889e-18 0 
0 -1.52767 -0.512633 -1.0123 0 -0.0805339 -6.93889e-18 6.93889e-18 -2.08038 
-1.92003 -3.56264 -2.77733 -3.19322 -3.79113 -3.806 -2.64438 -4.39351 -4.3693 
-4.55781 -4.97303 -5.04996 -5.61758 -6.14721 -4.01528 -4.41445 -4.83776 -6.08856 
-5.701 -5.35792 -2.77636 -3.1224 -2.67251 -2.79183 -3.28934 -3.60143 -2.4711 
-2.1156 -1.93774 -2.13904 -1.7153 -1.2796 -1.31779 -1.08473 -1.2781 -1.55365 
-1.32875 -1.181 -1.30433 -0.804628 -0.788627 -0.335217 2.77556e-17 -1.51904 -2.05692 
-2.07011 -1.36249 -0.511606 -1.01233 -0.0755769 -6.93889e-18 -2.60669 -3.16257 -3.60196 
-3.95794 -3.74871 -2.35521 -4.91885 -4.89698 -4.52874 -4.34058 -5.1541 -5.44733 
-5.54203 -6.04529 -6.37834 -4.08142 -3.73776 -4.48483 -4.62703 -5.00975 -5.78094 
-5.31733 -5.44418 -2.58682 -2.66591 -2.47001 -2.01483 -2.98378 -3.14507 -3.41153 
-1.68922 -1.28062 -1.08469 -0.913709 -0.603629 -0.815052 -1.06976 -0.871651 -0.800949 
-0.669657 -0.293211 1.38778e-17 0 -1.52109 -2.06201 -1.75091 -1.02567 -0.526388 
-0.0297393 0 -2.60216 -3.0953 -3.75177 -3.7438 -2.7609 -4.32923 -4.84743 
-4.29096 -4.84079 -4.8408 -5.38881 -5.42205 -6.0231 -6.00259 -6.54404 -6.19561 
-4.16299 -4.03442 -4.97503 -4.65771 -5.81546 -5.4497 -5.07603 -2.33499 -2.23919 
-2.17644 -1.88951 -1.57432 -1.49662 -2.66112 -3.13171 -3.23537 -3.76869 -1.24836 
-0.911756 -0.394524 -0.249319 -0.232036 -0.235685 -0.323154 -0.247096 -0.572825 -0.357385 
-0.17443 -0.0594317 -0.24366 -2.77556e-17 0 0 -1.5331 -2.62004 -2.07538 
-2.60448 -1.56384 -1.0625 -0.569662 -0.078201 0 3.46945e-18 0 0 
-3.19004 -4.0049 -3.79088 -4.86764 -4.30924 -5.35917 -5.36554 -5.92304 -5.76846 
-6.33819 -5.94519 -6.46301 -6.51862 -6.25873 -5.9294 -4.59866 -3.86186 -4.2203 
-5.11055 -5.64301 -2.0777 -1.78294 -1.33581 -1.4661 -1.07501 -2.51607 -2.97019 
-3.19574 -3.65145 -3.72008 -0.767266 -0.673348 -0.818681 -0.251395 0 0 
-0.0866212 2.77556e-17 -1.38778e-17 -1.38778e-17 -1.38778e-17 2.77556e-17 -1.38778e-17 0 -0.0725287 
-0.203819 -0.0999505 6.93889e-18 0 0 0 0 0 6.93889e-18 
-1.38778e-17 0 -2.65806 -3.21947 -2.21222 -2.07976 -1.53301 -2.12183 -1.07977 
-0.655739 -0.187111 0 0 -3.37006 -4.3244 -3.83306 -4.39346 -3.70872 
-5.40285 -4.93035 -5.45421 -4.62755 -5.60016 -5.93649 -6.44363 -5.93413 -6.44856 
-6.62504 -6.93803 -6.66103 -6.58291 -5.89063 -4.37419 -4.12081 -4.8083 -4.90867 
-5.31368 -1.89407 -1.33725 -1.07483 -1.28248 -0.921025 -0.598424 -0.481291 -0.614129 
-2.2715 -2.35874 -2.87366 -2.77327 -3.4223 -3.13772 -2.77207 -2.65949 -3.69055 
-0.306461 -0.140199 -2.77556e-17 -1.38778e-17 -6.93889e-18 0 1.38778e-17 -6.93889e-18 -2.73392 
-2.84683 -3.28003 -1.13249 -1.64019 -2.2087 -1.86904 -0.752024 -1.2157 0 
-0.352763 0 0 -3.85651 -4.47264 -5.01298 -5.52091 -4.89157 -5.94665 
-5.96333 -6.0418 -6.93005 -6.46544 -6.96931 -6.18773 -6.92369 -7.17958 -6.77061 
-6.32046 -6.07134 -5.56404 -4.66012 -3.84807 -4.42314 -5.27838 -1.62193 -1.76434 
-1.32624 -0.881786 -0.801178 -0.424506 -0.284324 -0.405182 -0.189264 -0.0710333 -2.13646 
-2.24127 -3.76678 -3.44472 -2.84649 -3.04874 -2.36739 -2.07416 -1.92006 1.38778e-17 
-2.84299 -2.31699 -2.97393 -3.36585 -1.7045 -1.98547 -0.806111 -0.373385 -1.29012 
-1.78899 -0.995815 2.77556e-17 -3.90579 -4.01842 -4.56773 -5.07039 -5.61488 -6.13352 
-6.5726 -6.63804 -7.26935 -7.40701 -7.43446 -7.02617 -7.50366 -6.87071 -6.44355 
-5.82769 -4.5492 -4.9842 -4.33131 -5.26815 -5.64323 -1.7751 -0.90005 -1.09206 
-0.72182 -0.211923 0 0 -5.55112e-17 0 6.93889e-18 6.93889e-18 3.46945e-18 
-6.93889e-18 0 -6.93889e-18 -3.59738 -3.30985 -2.01658 -2.55312 -2.67533 -3.00779 
-1.603 -2.93322 -2.38019 -2.21725 -3.11388 -3.4768 -1.82395 -0.825776 -0.416076 
-2.77556e-17 -2.77556e-17 -1.30703 -0.830895 -4.01848 -4.15123 -5.10586 -4.64709 -5.19439 
-4.27995 -5.70932 -6.22978 -5.50108 -6.73351 -7.08056 -7.1091 -7.20054 -7.31043 
-7.7244 -7.96965 -8.03258 -7.57256 -6.78507 -6.41061 -6.16429 -4.7606 -4.0534 
-4.70665 -4.19917 -5.41618 -5.13827 -1.39498 -0.465289 -0.547346 -0.853258 -0.390575 
-0.108106 -1.38778e-17 0 -3.74548 -3.43278 -2.39418 -1.77294 -1.68296 -1.29367 
-2.74992 -2.92449 -2.94274 -2.37586 -3.28786 -3.55384 -1.81392 -1.3975 -1.59876 
-0.391297 0 -2.77556e-17 -1.30201 -0.776936 -1.27796 -4.10556 -4.70207 -5.24207 
-4.40393 -4.14964 -5.70865 -6.29444 -6.79003 -7.26619 -7.65708 -7.04155 -7.43568 
-7.83323 -8.04856 -8.25354 -6.62262 -6.3576 -5.96703 -5.89366 -4.47332 -3.82662 
-4.21622 -4.90905 -5.60112 -5.05141 -0.997701 -0.559032 -0.110766 -6.93889e-18 -1.38778e-17 
-0.26391 -0.0423167 -5.55112e-17 0 1.38778e-17 -3.21262 -3.94871 -2.21991 -1.51845 
-1.24864 -1.03048 -1.98954 -2.47037 -2.91484 -2.51871 -2.95364 -2.71484 -2.36761 
-3.48529 -1.77038 -2.38688 -1.28906 -0.312734 -2.77556e-17 0 -0.775491 -4.79199 
-4.47476 -5.32515 -5.68964 -4.21168 -3.60059 -5.84314 -6.35601 -6.84329 -7.32633 
-7.72696 -7.77843 -8.11451 -6.7686 -7.25265 -7.0439 -7.81011 -7.57765 -7.98686 
-8.57723 -6.08137 -4.74468 -4.05968 -4.57228 -5.40297 -5.10414 -0.323456 0 
0 0 0 0 0 -3.64292 -1.84883 -1.22322 -0.760363 
-1.52531 -1.68867 -2.44513 -2.03834 -2.21005 -2.61388 -2.72835 -3.34225 -3.02893 
-2.75385 -1.8106 -2.47099 -1.38212 -0.868985 -0.271507 1.38778e-17 -0.123712 -0.279834 
-4.88749 -4.56842 -5.44814 -5.55817 -5.94917 -3.61727 -4.30659 -3.67065 -6.43772 
-6.9148 -7.39702 -7.84927 -8.1842 -8.22939 -8.29553 -6.48621 -7.17691 -6.89807 
-7.30882 -7.7013 -8.38225 -8.6498 -5.80579 -6.43 -4.65379 -4.3871 -4.08442 
-5.40398 -4.8129 -4.98837 2.77556e-17 -0.249055 -3.77564 -0.931506 -1.07957 -0.526116 
6.93889e-18 3.46945e-17 -1.46341 -1.92975 -1.54397 -2.17966 -2.37331 -3.07205 -2.76032 
-3.16024 -2.75811 -2.04636 -1.76659 -2.6073 -1.53822 -1.01454 -0.740115 -0.39876 
-1.38778e-17 0 -1.38778e-17 -2.77556e-17 -5.01261 -5.54779 -4.66655 -6.07865 -4.43929 
-3.67547 -3.89619 -6.55493 -7.00879 -7.48115 -7.94486 -8.38227 -8.68773 -8.75151 
-8.83026 -6.61369 -7.03055 -7.42599 -8.09832 -7.56453 -8.78923 -5.53174 -6.22002 
-4.51788 -5.23865 -4.92228 0 1.38778e-17 0 -3.45773 -4.19326 -3.84818 
-0.668877 -0.443388 -0.208076 -1.16513 -0.755976 2.77556e-17 -1.62072 -1.81652 -2.05441 
-3.13506 -2.43591 -3.34174 -3.67479 -2.77718 -2.2204 -1.95392 -1.70868 -1.20237 
-1.10986 -0.517592 -0.765091 -1.38778e-17 -0.198073 -5.56483 -5.17708 -4.71964 -6.2056 
-4.6174 -4.10258 -6.70362 -7.16791 -7.61508 -8.06791 -8.50095 -8.93135 -9.14048 
-9.20281 -9.27606 -9.37725 -5.94711 -6.33687 -6.72259 -7.34511 -6.91399 -7.85099 
-8.4789 -8.32834 -7.78975 -7.44877 -7.09183 -8.79294 -5.65194 -4.58875 -5.31558 
-4.00741 -3.5067 -3.60393 -0.566501 -0.0540999 0 6.93889e-18 0 -1.07007 
-1.30733 -1.5901 -1.70723 -2.08802 -2.79942 -3.39327 -3.0274 -2.44021 -3.55472 
-3.68832 -2.88825 -2.43741 -2.13817 -1.93906 -1.46693 -1.26467 -0.393929 -1.03981 
-0.666495 0 0 0 -5.70709 -5.37836 -5.75669 -4.70177 -6.38978 
-5.88406 -4.37747 -4.52503 -3.68149 -6.87771 -7.29322 -7.76409 -7.33588 -7.98702 
-8.21356 -8.64968 -9.07621 -9.51143 -8.84356 -9.05517 -9.1715 -9.50934 -9.8345 
-9.96232 -6.03041 -6.48233 -6.21832 -6.74944 -8.13962 -8.48986 -7.10276 -7.80161 
-5.90825 -4.23759 -4.96753 -5.16683 -5.60916 -3.87718 -3.521 -0.723832 -0.450663 
-0.310503 -2.77556e-17 0 -6.93889e-18 -3.46945e-18 -0.894002 -0.605791 -0.997884 -1.35788 
-1.72361 -2.07593 -3.16425 -2.75352 -2.3922 -2.9393 -2.70626 -3.05701 -2.17262 
-1.81438 -2.13188 -1.20626 0 -1.05205 -2.77556e-17 -0.329051 -0.695683 -4.88363 
-5.55892 -6.15989 -6.64028 -3.8294 -4.48799 -3.24084 -3.68806 -7.07636 -7.05074 
-7.55754 -7.99748 -8.27187 -8.80119 -9.22807 -9.6691 -10.0865 -8.82618 -9.30692 
-9.58054 -9.6865 -9.84501 -10.1934 -6.38793 -6.05378 -6.4041 -8.14709 -8.4828 
-6.7518 -7.45647 -5.68968 -4.61136 -4.23822 -4.79419 -5.3392 -4.97594 -3.86855 
-3.15358 -3.49838 -0.307813 2.77556e-17 -5.55112e-17 0 0 -2.77556e-17 -0.198727 
-0.302155 -0.673814 -0.854182 -1.01885 -1.36361 -1.72297 -1.86664 -2.78325 -2.42408 
-2.07856 -2.23554 -3.04783 -2.57287 -3.5667 -1.38632 -2.09334 -1.76014 -1.40795 
-1.23303 2.77556e-17 6.93889e-18 -0.0716094 -0.431744 -1.11255 -0.884366 -5.19591 -5.40161 
-5.68384 -6.72251 -6.43907 -6.00433 -6.39832 -4.12763 -4.49829 -4.65295 -3.74149 
-7.37618 -7.80939 -8.39935 -8.22376 -8.61758 -8.81176 -9.53438 -9.38275 -9.83924 
-10.248 -10.5403 -9.16019 -8.81863 -9.50403 -9.7597 -9.50685 -9.16268 -9.76389 
-9.84898 -10.1958 -5.70219 -6.04316 -6.39286 -7.79655 -8.13184 -8.47858 -7.10599 
-6.75279 -7.44864 -4.59225 -4.21991 -4.77006 -5.32977 -3.86113 -3.13201 -3.49516 
-0.0774327 -2.77556e-17 -2.77556e-17 6.93889e-18 1.38778e-17 2.77556e-17 -0.0922874 -0.524116 -0.656897 
-1.00383 -1.36388 -1.74684 -2.7692 -1.76932 -2.07009 -2.42751 -3.07597 -3.41762 
-2.12477 -2.96439 -2.54626 -3.80474 -2.15816 -2.28259 -1.8192 -1.37536 0 
1.38778e-17 -0.257732 -1.299 -0.751284 -1.06419 -5.3551 -6.92689 -6.7726 -5.48892 
-6.22581 -5.83965 -6.1746 -4.42602 -4.57815 -4.9567 -7.65533 -7.92077 -7.21015 
-8.05386 -9.0099 -8.47584 -8.84211 -9.22309 -9.94752 -9.62879 -10.4388 -10.8813 
-10.1582 -10.5465 -8.82438 -9.16609 -9.69431 -9.68033 -9.8637 -10.1139 -5.6763 
-6.03402 -6.3921 -7.78838 -8.13899 -8.49088 -7.11007 -6.76208 -7.45049 -4.77094 
-4.44691 -4.54232 -4.95597 -5.31268 -4.23374 -3.85984 -3.12227 -3.49771 0 
0 1.38778e-17 0 6.93889e-18 -0.315644 6.93889e-18 -1.38778e-17 -0.297831 -0.636974 
-0.993999 -1.36121 -1.70595 -2.10137 -2.78639 -3.09712 -3.82865 -3.79689 -3.91488 
-3.36204 -2.9838 -3.13862 -2.60529 -2.33944 -3.91246 -1.55654 -2.26974 -2.0312 
-1.38778e-17 1.38778e-17 -0.310182 -0.744954 -0.459875 -1.26363 -1.86871 -1.31442 -5.36475 
-7.11315 -7.33867 -6.32799 -6.68897 -6.08554 -5.31239 -5.67374 -4.61973 -4.29245 
-7.75136 -8.36572 -7.46742 -8.74614 -9.065 -9.15942 -9.46 -9.85547 -10.0319 
-10.2746 -10.5237 -10.9411 -10.4118 -9.97724 -8.84186 -9.51315 -9.1934 -9.72237 
-9.71262 -9.65626 -9.52783 -5.68071 -6.04375 -6.41339 -7.79747 -8.15669 -8.5178 
-7.12002 -6.7912 -7.46785 -4.95878 -4.64737 -5.32307 -4.22721 -3.88458 -3.16796 
-6.93889e-18 -6.93889e-18 0 -2.08167e-17 -0.638393 -0.274152 4.16334e-17 -1.0219 -1.76672 
-1.37436 -2.47126 -2.14277 -3.95604 -3.7806 -3.24908 -2.46695 -3.04713 -2.73102 
-2.53303 -3.46945e-18 -0.0307339 -0.539214 -0.783536 -1.00239 -1.81263 -2.38982 -2.34868 
-1.48418 -1.85434 -1.65419 -7.1999 -7.50498 -7.92501 -7.54084 -6.93747 -6.79472 
-6.23769 -6.06186 -4.78002 -5.15115 -5.46935 -6.06827 -5.48773 -4.64079 -4.73107 
-4.71796 -4.22223 -7.96249 -8.7075 -9.06136 -8.34162 -9.40908 -9.65422 -9.8812 
-10.105 -10.5019 -10.9197 -10.6878 -10.8594 -10.0426 -10.2439 -9.82896 -9.37516 
-8.8821 -9.54302 -9.22828 -9.36726 -8.90085 -9.06836 -5.69642 -6.08239 -7.82897 
-8.19437 -8.56604 -7.15155 -6.46413 -6.92763 -7.49758 -4.9829 -4.58961 -5.02516 
-4.25599 -3.55976 -3.93297 -2.84809 -3.23725 -0.283236 -0.677853 1.38778e-17 2.08167e-17 
0 -1.02949 -1.40298 -1.7857 -2.523 -2.21314 -4.03613 -4.16273 -3.87965 
-3.4009 -4.17165 -3.32217 -3.46717 -3.23523 -3.06504 3.46945e-18 -3.46945e-18 1.38778e-17 
-0.124599 -0.865301 -0.48944 -1.28643 -1.59413 -1.53741 -2.20825 -2.95629 -2.92382 
-2.3413 -2.41335 -1.97853 -2.20279 -8.12004 -7.83985 -7.10926 -6.66132 -6.78198 
-5.11611 -5.48296 -5.58675 -6.07335 -4.82595 -4.64463 -9.2072 -9.15201 -9.44214 
-8.77465 -9.73707 -9.88735 -9.66978 -10.0625 -10.2212 -11.012 -10.7171 -10.6688 
-10.9346 -10.4908 -9.71582 -10.0594 -9.20828 -8.77471 -8.84199 -9.19451 -8.72296 
-9.16546 -8.43684 -8.6004 -8.65522 -5.33629 -5.74915 -6.14408 -7.86292 -8.25263 
-8.36908 -6.83106 -6.52083 -7.18373 -7.54449 -4.91295 -4.96355 -4.65167 -4.33547 
-3.6298 -2.9173 -3.31765 0 -1.38778e-17 -0.340362 -0.708967 -1.09285 -1.73179 
-1.48863 -2.62087 -1.90485 -2.33577 -4.74914 -4.88256 -4.15888 -3.54173 -3.49951 
-3.53419 -3.39684 0 2.77556e-17 -1.20878 -0.84501 -1.46599 -1.38778e-17 -0.143668 
-1.7205 -2.04365 -3.3119 -3.132 -2.95537 -2.82884 -2.76789 -2.52642 -2.7105 
-2.50412 -2.641 -8.32621 -7.94406 -7.56433 -7.10646 -7.5641 -6.76207 -5.44777 
-5.17534 -4.87039 -5.43277 -5.63696 -6.12387 -6.61163 -9.267 -8.91904 -10.0096 
-9.74786 -9.76507 -8.64047 -10.2188 -10.1414 -10.4561 -10.3852 -11.0586 -10.7766 
-10.6826 -10.4074 -9.65553 -9.75321 -9.87699 -9.42625 -8.98479 -8.55643 -8.73054 
-8.28139 -8.24632 -7.99702 -7.83134 -8.14667 -5.4107 -5.83008 -7.93494 -7.89469 
-7.78874 -6.79595 -6.20921 -6.31757 -6.8831 -7.23947 -7.46021 -5.08775 -4.0327 
-4.76146 -4.13254 -3.73316 -3.01372 -3.42754 0 -0.378877 -1.38778e-17 -0.819226 
-1.46019 -1.22109 -2.72472 -1.62077 -2.0412 -2.42795 -4.8893 -4.40075 -5.30828 
-4.13061 -3.84809 -3.65119 -3.52076 -1.55553 -1.09136 -1.53759 -1.78627 -0.440809 
-0.605363 -1.62599 -1.38778e-17 1.38778e-17 -2.08167e-17 -3.46945e-18 -2.38247 -1.97505 -2.67995 
-3.48123 -3.53923 -2.9916 -3.09523 -3.26681 -2.99031 -8.34403 -8.07927 -7.35493 
-8.02131 -6.73122 -5.43689 -5.49131 -5.76884 -6.1331 -6.10685 -6.09149 -6.61241 
-9.60329 -9.25941 -9.86524 -10.226 -10.4584 -10.6115 -8.89655 -8.51837 -10.7072 
-10.7883 -10.6847 -11.1096 -10.5902 -10.8573 -10.2611 -9.37228 -9.58852 -9.15293 
-8.88877 -8.1169 -8.19513 -8.36652 -7.7624 -7.62882 -7.53439 -7.36365 -7.67424 
-5.49746 -7.41078 -7.32218 -7.21301 -6.5681 -5.87963 -6.26291 -6.93502 -6.96511 
-5.1657 -4.44441 -4.85486 -3.87986 -3.10766 -3.74503 0 1.38778e-17 -0.188 
-0.306266 -0.440356 -0.931116 -1.3283 -2.78964 -1.6945 -2.08925 -2.46935 -4.9711 
-4.92087 -4.63754 -5.55694 -5.48728 -5.63745 -4.27098 -4.17212 -4.0717 -1.66777 
-1.1707 -1.89534 -2.18382 1.38778e-17 3.46945e-18 -0.110442 -0.676534 -0.178526 -2.70875 
-2.75194 -2.95426 -3.28358 -4.03428 -4.07097 -3.95815 -3.77315 -3.64964 -3.70997 
-3.62157 -3.52774 -3.5264 -3.65217 -8.88865 -8.65217 -8.5848 -7.71494 -7.2365 
-7.24036 -7.91243 -6.73541 -6.09745 -5.90233 -6.13559 -6.70129 -6.69405 -6.73691 
-9.80485 -9.46221 -9.14949 -10.2522 -10.7144 -10.8867 -10.3429 -11.0665 -10.9054 
-11.1385 -11.1555 -10.0872 -10.4423 -10.7944 -9.09512 -9.36171 -10.0117 -8.69808 
-8.63831 -8.32377 -7.66141 -7.87438 -7.46321 -8.14545 -7.29433 -7.20341 -7.1435 
-7.05577 -6.8932 -5.56165 -6.91643 -6.83954 -6.73033 -6.67463 -5.97171 -6.51914 
-6.03749 -6.46413 -5.25184 -4.15092 -4.55122 -4.93057 -3.49941 -3.14495 -3.74038 
-3.84532 1.38778e-17 0 -6.93889e-18 -0.329564 0 -1.38778e-17 -0.307386 -0.578299 
-0.973993 -1.59108 -1.53601 -1.71864 -2.0824 -2.77546 -2.35406 -5.05764 -4.34088 
-4.86625 -5.68142 -5.18547 -6.15254 -4.55946 -4.42868 -4.23934 -1.72198 -1.22214 
-1.98554 -2.24398 0 1.38778e-17 0 0 -0.728485 -0.231783 0 
1.38778e-17 -2.78428 -2.95653 -3.15315 -3.331 -3.57585 -4.10771 -4.71314 -4.62949 
-4.25436 -3.84748 -4.08752 -3.78188 -3.92572 -9.06878 -9.42614 -9.22841 -8.46584 