# vtk DataFile Version 4.2
3D Slicer output. SPACE=LPS
ASCII
DATASET POLYDATA
POINTS 4837 float
-76.6946 47.6219 24.6273 -76.6946 47.4431 24.8524 -77.1946 47.4431 24.8419 
-77.1946 47.6191 24.6273 -76.1946 47.7311 24.6273 -76.5019 47.7457 24.5094 
-76.6946 47.7373 24.4707 -76.8654 47.7297 24.4566 -77.1946 47.7216 24.4664 
-76.1946 47.4431 24.9589 -76.6946 47.2027 25.1273 -77.6946 47.6368 24.6273 
-77.6946 47.4431 24.8661 -77.1946 47.1753 25.1273 -77.5654 47.7145 24.4981 
-76.1946 47.784 24.551 -76.0121 47.7851 24.6273 -76.1946 47.2445 25.1273 
-75.6946 47.4431 25.1527 -75.842 47.7505 24.725 -76.1946 46.9431 25.4055 
-76.6946 46.9431 25.4096 -77.1946 46.9431 25.3717 -78.1946 47.4431 24.844 
-78.1946 47.6136 24.6273 -77.6946 47.71 24.5001 -77.8154 47.7034 24.5065 
-78.1946 47.6742 24.5259 -77.6946 47.1976 25.1273 -78.1946 47.2116 25.1273 
-75.6946 46.9431 25.5558 -75.6946 47.7418 24.7927 -75.5562 47.7302 24.851 
-75.1946 47.6857 25.1273 -75.1946 47.4431 25.4039 -75.5187 46.9431 25.6273 
-75.6946 46.7994 25.6273 -76.1946 46.6124 25.6273 -76.6946 46.667 25.6273 
-77.1946 46.6751 25.6273 -77.6946 46.9431 25.3944 -77.6946 46.7026 25.6273 
-78.6946 47.6129 24.6273 -78.6946 47.4431 24.8757 -78.6946 47.2806 25.1273 
-78.2905 47.6687 24.5314 -78.6946 47.6524 24.5587 -78.1946 46.9431 25.4614 
-75.2188 47.7098 25.0806 -75.1946 47.7074 25.0949 -75.1644 47.7013 25.1165 
-75.1504 47.6959 25.1273 -74.6946 47.4431 25.447 -74.6946 47.1334 25.6273 
-75.1946 47.1047 25.6273 -75.1946 46.9431 25.7061 -75.6946 46.4431 25.7826 
-75.1946 46.4431 25.9477 -76.1946 46.4431 25.7289 -76.6946 46.4431 25.7809 
-77.1946 46.4431 25.8073 -78.1946 46.7851 25.6273 -77.6946 46.4431 25.8445 
-78.1946 46.4431 25.9192 -79.1946 47.6524 24.6273 -79.1586 47.6703 24.5913 
-79.1946 47.4431 24.9537 -79.1946 47.3409 25.1273 -78.6946 46.9048 25.6273 
-78.8214 46.9431 25.6273 -74.6946 47.4765 25.4172 -74.6499 47.4431 25.4454 
-74.4326 47.104 25.6273 -74.6946 46.9431 25.7425 -74.4655 47.2753 25.5365 
-75.1946 46.1767 26.1273 -75.5611 45.9431 26.1273 -75.6946 45.9431 26.0932 
-76.1946 45.9431 26.0461 -74.8459 46.4431 26.1273 -76.6946 45.9431 26.0644 
-77.1946 45.8671 26.1273 -78.6946 46.4431 26.0085 -77.6946 45.9357 26.1273 
-77.7408 45.9431 26.1273 -78.1946 46.058 26.1273 -78.6946 46.2502 26.1273 
-79.1946 47.67 24.5931 -79.6543 47.7232 24.6537 -79.4492 47.701 24.6273 
-79.6946 47.7276 24.657 -79.6946 47.4069 25.1273 -79.1946 47.0308 25.6273 
-79.6946 47.0836 25.6273 -79.1946 46.9431 25.739 -79.0414 46.4431 26.1273 
-74.3798 47.0275 25.67 -74.1946 46.9431 25.7286 -74.1946 46.6624 26.1273 
-74.6946 46.4431 26.2196 -75.1946 45.9431 26.2538 -74.6946 45.9431 26.5277 
-75.6946 45.8564 26.1273 -75.1946 45.4431 26.4137 -75.6946 45.4431 26.2276 
-76.1946 45.762 26.1273 -76.6946 45.8148 26.1273 -77.1946 45.4431 26.2478 
-77.6946 45.4431 26.3225 -78.1946 45.9431 26.1841 -78.6946 45.9431 26.3264 
-79.7046 47.7292 24.6578 -79.8586 47.4431 25.1273 -79.6946 46.9431 25.8278 
-80.1946 47.1615 25.6273 -79.1946 46.4431 26.1922 -79.6946 46.6878 26.1273 
-79.1946 45.8564 26.6273 -74.1946 47.0138 25.6752 -74.1041 46.9431 25.6865 
-74.0861 46.802 25.8786 -73.9346 46.6296 26.1273 -74.1946 46.4431 26.5211 
-74.0222 46.4431 26.6273 -74.5077 45.9431 26.6273 -74.1946 46.3264 26.6273 
-74.6946 45.6689 26.6273 -75.1946 44.9431 26.5363 -75.6946 44.9431 26.3605 
-75.0214 44.9431 26.6273 -74.8111 45.4431 26.6273 -76.1946 44.9431 26.3455 
-76.1946 45.4431 26.2157 -76.6946 45.4431 26.2444 -77.1946 44.9431 26.3384 
-76.6946 44.9431 26.3284 -77.6946 44.9431 26.4561 -78.1946 45.4431 26.471 
-78.6946 45.4835 26.6273 -79.7274 47.7347 24.6602 -80.1946 47.5485 25.1273 
-80.1946 47.4431 25.2669 -80.1946 46.9431 25.8934 -80.6946 47.3391 25.6273 
-80.6946 47.4431 25.5074 -79.3198 45.9431 26.6273 -79.6946 46.4431 26.3599 
-80.1946 46.762 26.1273 -79.1946 45.4431 26.8328 -73.8364 46.5317 26.3438 
-73.6946 46.4431 26.8101 -73.6946 45.9431 26.9751 -74.1946 45.9431 26.7645 
-73.6946 46.5601 26.6273 -74.1946 45.4431 26.8402 -74.6946 45.4431 26.6795 
-75.1946 44.4431 26.5793 -75.6946 44.4431 26.4559 -75.0603 44.4431 26.6273 
-76.1946 44.4431 26.3942 -74.6946 44.9431 26.7642 -74.6946 44.4431 26.7412 
-76.6946 44.4431 26.3646 -77.1946 44.4431 26.4224 -78.1946 44.8846 26.6273 
-78.0286 44.4431 26.6273 -77.6946 44.4431 26.5419 -78.6946 44.9431 26.783 
-80.1946 47.8446 24.705 -80.279 47.8712 24.7184 -80.4469 47.9431 24.7428 
-80.6946 47.9431 24.9347 -80.6946 47.7946 25.1273 -80.6946 46.8863 26.1273 
-80.843 46.9431 26.1273 -80.954 47.4431 25.6273 -79.6946 46.1254 26.6273 
-79.6946 45.9431 26.7669 -80.1946 46.2795 26.6273 -80.1946 46.4431 26.4717 
-79.6946 45.1313 27.1273 -79.6946 45.4431 27.0479 -79.1946 44.9431 26.9634 
-73.6946 46.5741 26.4493 -73.4582 45.9431 27.1273 -73.1946 46.4106 27.1273 
-73.2162 46.4431 27.0817 -73.4316 46.5367 26.714 -73.4782 46.5865 26.6273 
-73.6946 45.4431 26.9964 -73.5 45.4431 27.1273 -73.5681 46.5567 26.5008 
-74.1946 44.9431 26.8785 -75.1946 43.9431 26.5571 -75.6946 43.9431 26.4521 
-76.1946 43.9431 26.4357 -74.9468 43.9431 26.6273 -76.6946 43.9431 26.4641 
-74.1946 44.4431 26.85 -74.6946 43.9431 26.6837 -74.1946 43.9431 26.7435 
-77.1946 43.9431 26.4942 -78.1946 44.4431 26.6701 -78.6946 44.4431 26.8158 
-77.8704 43.9431 26.6273 -78.1946 43.9431 26.7171 -77.6946 43.9431 26.5808 
-80.6946 48.0226 24.7738 -80.7893 48.0429 24.7986 -80.971 47.9431 25.1273 
-80.6946 46.4431 26.6332 -80.6814 46.4431 26.6273 -81.1946 47.1478 26.1273 
-81.1946 46.7008 26.6273 -81.1946 46.9431 26.3495 -81.1946 47.4431 25.7695 
-81.1946 47.5797 25.6273 -81.1946 47.9431 25.275 -80.1946 45.9431 26.9304 
-80.1946 45.6455 27.1273 -79.9024 45.4431 27.1273 -79.6183 44.9431 27.1273 
-80.1946 44.9431 27.4151 -79.4716 44.4431 27.1273 -79.1946 44.4431 27.0119 
-73.1946 45.9431 27.3468 -73.1854 46.4182 27.1273 -73.1946 46.4264 27.1111 
-73.6946 44.9431 27.0328 -73.1946 45.4431 27.4394 -73.1946 44.9431 27.389 
-73.5126 44.9431 27.1273 -73.6946 44.4431 26.9755 -75.1946 43.4431 26.4649 
-75.6946 43.4431 26.3814 -76.1946 43.4431 26.4035 -76.6946 43.4431 26.4518 
-74.6946 43.6824 26.6273 -77.1946 43.4431 26.4853 -73.6946 43.9431 26.8302 
-74.1946 43.624 26.6273 -77.6946 43.4431 26.5547 -78.6946 43.9431 26.8345 
-77.9731 43.4431 26.6273 -78.1946 43.4431 26.6928 -78.6946 43.4431 26.826 
-81.0925 48.1321 24.8557 -81.1946 48.1721 24.8896 -81.1946 48.0644 25.1273 
-80.6946 45.9431 27.1346 -81.1946 46.4431 26.9443 -80.6801 45.9431 27.1273 
-81.5411 47.4431 26.1273 -81.6946 47.4431 26.3458 -81.5031 46.9431 26.6273 
-81.502 46.4431 27.1273 -81.6946 47.1753 26.6273 -81.6946 47.6362 26.1273 
-81.6946 47.9431 25.7354 -81.6946 48.0199 25.6273 -81.6686 48.3542 25.135 
-81.6946 48.3627 25.1471 -80.1946 45.4431 27.2292 -80.6946 45.4431 27.4435 
-79.6946 44.4431 27.2416 -80.5343 44.9431 27.6273 -80.1946 44.4431 27.5727 
-80.6946 45.1327 27.6273 -79.4589 43.9431 27.1273 -79.1946 43.9431 26.9936 
-73.1534 45.7974 27.4285 -73.1749 45.9431 27.3681 -73.1723 45.9654 27.3564 
-73.1802 46.1259 27.2666 -73.0636 45.0778 27.5767 -73.0925 45.4431 27.5751 
-73.3545 44.4431 27.1273 -73.1946 44.4431 27.2406 -73.0215 44.6808 27.514 
-73.0511 44.9431 27.5797 -75.1946 42.9431 26.3146 -74.6946 43.4431 26.5513 
-74.6946 42.9431 26.3586 -75.6946 42.9431 26.2856 -76.1946 42.9431 26.3139 
-76.6946 42.9431 26.3631 -77.1946 42.9431 26.4045 -77.6946 42.9431 26.4787 
-73.7795 43.4431 26.6273 -73.6946 43.3636 26.6273 -73.1945 43.9431 27.1273 
-73.1946 43.4431 27.0259 -73.1946 43.9434 27.1273 -74.1946 43.4431 26.5477 
-79.1946 43.4431 26.9954 -78.1946 42.9431 26.6124 -78.6946 42.9431 26.7608 
-79.1946 42.9431 26.9633 -81.5097 48.303 25.0415 -81.6518 48.3501 25.1273 
-81.1946 45.9431 27.4395 -81.1946 46.2779 27.1273 -81.8828 47.4431 26.6273 
-81.9215 47.9431 26.1273 -81.6946 46.9431 26.808 -81.6946 46.1053 27.6273 
-81.6946 46.4431 27.2411 -81.4626 45.9431 27.6273 -81.6946 46.56 27.1273 
-82.1946 47.281 27.1273 -82.0257 46.9431 27.1273 -82.0673 48.4431 25.6273 
-82.1946 48.4431 25.8158 -81.7322 48.3835 25.1778 -80.9724 45.4431 27.6273 
-81.1946 45.6849 27.6273 -79.6946 43.9431 27.2851 -80.6946 44.4431 27.9068 
-80.6946 44.9431 27.745 -80.1946 43.9431 27.6131 -80.6946 43.9431 27.911 
-81.1946 45.4431 27.7903 -79.432 43.4431 27.1273 -79.6946 43.4431 27.2988 
-73.0295 44.278 27.3828 -73.0173 44.4431 27.4484 -75.1946 42.4431 26.2162 
-74.6946 42.4431 26.1937 -74.1946 42.9431 26.3693 -74.1946 42.4431 26.2153 
-75.6946 42.4431 26.2027 -76.1946 42.4431 26.2212 -76.6946 42.4431 26.2593 
-77.1946 42.4431 26.2985 -77.6946 42.4431 26.3488 -78.1946 42.4431 26.4739 
-73.6946 42.9431 26.4864 -73.4421 42.9431 26.6273 -73.0207 43.8365 27.3012 
-73.0968 43.4431 27.1273 -73.0467 43.9431 27.2882 -73.0467 43.9433 27.2883 
-73.1946 42.9431 26.8526 -72.958 42.9431 27.1273 -78.6201 42.4431 26.6273 
-79.1946 42.4431 26.8544 -79.5451 42.9431 27.1273 -79.6946 42.7248 27.1273 
-82.1946 47.4431 27.0315 -82.1946 47.8788 26.6273 -82.1946 48.226 26.1273 
-82.1797 46.4431 27.6273 -82.1946 46.0712 28.1273 -82.1946 46.4431 27.6435 
-82.0413 45.9431 28.1273 -81.6946 45.9431 27.8144 -82.1946 46.9431 27.2997 
-82.6206 47.4431 27.6273 -82.2701 47.4431 27.1273 -82.4622 46.9431 27.6273 
-82.1946 48.5921 25.6273 -81.8094 48.4262 25.2421 -82.333 48.7074 25.7162 
-82.4275 48.7514 25.819 -82.3808 48.4431 26.1273 -80.1946 43.4431 27.588 
-81.0581 44.4431 28.1273 -81.0396 43.9431 28.1273 -81.1946 44.8703 28.1273 
-81.0245 43.4431 28.1273 -80.6946 43.4431 27.8777 -81.6268 45.4431 28.1273 
-79.6946 42.9431 27.1964 -80.1946 42.9431 27.426 -75.6946 42.0784 26.1273 
-75.1946 41.9431 26.1252 -74.6946 42.1915 26.1273 -73.6946 42.4431 26.3974 
-74.1946 42.1187 26.1273 -76.1946 41.9431 26.0956 -76.96 41.9431 26.1273 
-76.6946 41.9431 26.1169 -77.1946 41.9085 26.1273 -77.6946 41.9431 26.2029 
-78.1946 41.9431 26.3023 -78.6946 42.3633 26.6273 -78.6946 41.9431 26.4517 
-73.3461 42.4431 26.6273 -72.9402 43.5185 27.322 -72.9188 43.4431 27.3321 
-72.8193 43.0981 27.3136 -73.1946 42.4431 26.7636 -72.7767 42.9431 27.3132 
[...]
POINT_DATA 4837
SCALARS scalars float
LOOKUP_TABLE default
-0.219713 -0.481658 -0.471105 -0.201064 -0.116452 0 0 2.77556e-17 0 
-0.484778 -0.840612 -0.147593 -0.453895 -0.861337 -1.38778e-17 0 1.38778e-17 -0.738581 
-0.441088 0 -1.13301 -1.2215 -1.19796 -0.392416 -0.117839 0 1.38778e-17 
0 -0.810685 -0.756759 -1.00619 -2.77556e-17 0 -0.0337239 -0.317917 -0.940165 
-1.14203 -1.51248 -1.57104 -1.56773 -1.17787 -1.51064 -0.0789633 -0.378974 -0.677982 
0 0 -1.1837 3.46945e-18 0 0 0 -0.0358096 -0.308377 
-0.634116 -0.774178 -1.46489 -1.20312 -1.69652 -1.83992 -1.8591 -1.41115 -1.8452 
-1.85347 -0.0385465 -6.93889e-18 -0.423259 -0.624688 -1.30166 -1.27305 0 0 
2.77556e-17 -0.476179 -2.77556e-17 -1.43422 -1.84465 -1.92285 -2.21314 -1.00935 -2.40459 
-2.50029 -1.88458 -2.40407 -2.3941 -2.26833 -2.10034 0 -2.08167e-17 3.46945e-18 
-2.77556e-17 -0.588681 -1.21287 -1.18387 -1.35395 -1.96292 -2.77556e-17 -0.311968 -0.435355 
-0.923396 -1.62627 -1.32949 -1.99447 -2.01934 -2.32079 -2.37504 -2.54414 -2.90656 
-2.90375 -2.38997 -2.45483 0 -0.572873 -1.42836 -1.15688 -2.0115 -1.81866 
-2.72052 -2.77556e-17 0 -2.77556e-17 2.77556e-17 -0.629263 -0.526331 -1.21636 -0.728207 
-1.54378 -2.39708 -2.71676 -2.20287 -1.79064 -3.03529 -2.6366 -2.91267 -3.36732 
-3.34533 -3.382 -2.95102 -2.9926 -2.08167e-17 -0.5287 -0.702162 -1.49915 -1.08085 
-0.923644 -2.66343 -2.14944 -1.79419 -3.15299 0 -0.32312 -0.623163 -1.02156 
-0.222193 -1.24977 -1.71968 -2.28881 -2.79781 -2.14763 -3.29056 -1.84934 -1.76949 
-3.73413 -3.83575 -3.48233 -3.85757 -3.84439 -3.50064 2.77556e-17 0 0 
-0.195631 -0.42083 -1.74986 -1.72294 -1.02604 -2.5542 -2.77701 -2.48162 -2.2594 
-3.59102 -3.31713 -3.60685 2.77556e-17 -0.347477 -0.0138027 6.93889e-18 -2.77556e-17 0 
-0.789436 -0.578057 0 -1.35454 -2.26605 -2.77358 -3.2576 -2.00907 -3.73563 
-1.27327 -1.75284 -1.26894 -4.21849 -3.86701 -3.91882 -4.29881 -4.31551 -4.29366 
0 1.38778e-17 -0.341792 -2.41942 -2.41391 -1.59728 -2.26706 -1.89878 -1.13388 
-0.937803 -0.443546 -2.92673 -3.26742 -3.38436 -3.72462 -3.95518 -4.10106 -4.02576 
-0.026085 0 -8.67362e-19 -0.853968 -0.165108 -0.243649 -0.653969 -0.784964 -2.34663 
-2.8388 -3.30489 -3.77383 -1.79164 -3.96332 -0.792764 -1.35285 -4.00159 -4.34719 
-4.03987 -4.07555 -4.15848 -2.77556e-17 2.77556e-17 -0.26047 -3.12068 -2.67485 -3.11395 
-1.36582 -1.48882 -2.07043 -2.76823 -1.86749 -1.20475 -0.720179 -0.591332 -6.93889e-18 
2.08167e-17 -3.47695 -3.67665 -4.18052 -4.13397 -4.42624 -4.01938 -4.50438 -4.42523 
0 0 0 0 -6.93889e-18 0 -0.437467 -0.256469 2.77556e-17 
-1.38778e-17 -2.52553 -1.86021 -2.0828 -2.97887 -3.42716 -3.45519 -3.46936 -3.50858 
-1.06007 -1.02271 -0.218532 -0.394999 -0.218581 -1.4301 -4.26466 -3.582 -3.6719 
-3.79356 -1.38778e-17 3.46945e-18 -3.37609 -2.92096 -1.62261 -0.934102 -2.15493 -3.28807 
-2.8013 -3.46767 -2.64284 -1.94811 -2.26367 -0.217028 -0.299705 -3.46945e-18 -3.83788 
-3.68854 -4.60418 -4.69826 -4.23375 -4.83404 -5.07043 -3.97176 -4.33801 -4.43288 
2.77556e-17 0 -2.60469 -2.15556 -1.68109 -1.7098 -2.92557 -2.95643 -2.95778 
-2.96878 -2.99755 -3.0683 -1.22828 -0.951451 -2.77556e-17 -0.261432 0 0 
-0.620856 -0.259531 -3.15611 -3.29569 -3.89419 -3.71269 -1.76656 -1.20242 -0.648924 
-2.90253 -3.46007 -2.90758 -3.60115 -3.52062 -2.31543 -1.96655 -1.7973 -2.42143 
-0.0817932 0 2.77556e-17 0 -0.429845 -4.60982 -4.89052 -5.25177 -4.60699 
-4.97339 -4.80505 -4.10988 -3.93832 -4.09347 -2.57356 -2.35082 -2.18415 -1.19836 
-1.7564 -2.45731 -2.4455 -2.44741 -2.41218 -2.48161 -2.54225 -3.08877 -2.63474 
-0.785805 0 0 0 -0.58356 0 -1.38778e-17 -0.0641829 -2.78638 
-2.93684 -3.4231 -2.73529 -3.48188 -1.31321 -0.668371 -1.13133 -2.88637 -3.63435 
-3.10973 -3.06613 -4.11684 -4.26241 -2.00923 -1.80077 -1.38669 -2.88085 -2.54466 
-1.38778e-17 -1.38778e-17 -6.93889e-18 6.93889e-18 -0.551164 -4.2286 -5.35986 -4.98727 -5.07466 
-4.88249 -4.7319 -4.56874 -4.3071 -3.95955 -3.58323 -2.43729 -2.16787 -1.83707 
-1.24586 -0.773994 -1.67061 -1.79647 -1.93058 -1.92319 -1.92931 -2.20386 -2.03424 
-2.12393 -2.00737 -2.49618 -0.62205 -3.46945e-17 0 0 -3.01869 -2.59512 
-2.44823 -0.815335 -0.146504 -3.73815 -3.59909 -3.23946 -4.18961 -3.7908 -4.4205 
-4.30834 -2.13956 -1.48733 -2.59617 -3.46945e-18 -5.62984 -5.20731 -5.33393 -5.06654 
-4.90831 -5.36672 -5.23822 -4.48177 -4.92152 -4.07372 -3.79298 -3.28057 -1.91996 
-1.52969 -1.68458 -1.37858 -1.44669 -1.40273 -0.745546 -1.44118 -1.43644 -1.43735 
-1.97228 -1.46925 -1.85109 -1.6279 -1.76912 -2.27434 -1.5867 -2.31589 -0.220226 
2.77556e-17 2.77556e-17 -2.68513 -2.12095 -1.91197 -1.10397 -0.945204 -0.405772 -1.38778e-17 
-1.38778e-17 1.38778e-17 2.77556e-17 -3.91558 -3.34141 -2.7764 -4.54035 -5.08587 -2.2888 
-1.74296 -5.66932 -5.71445 -5.79658 -5.46161 -5.31721 -5.45121 -5.87923 -4.20271 
-4.40798 -4.61164 -3.5294 -3.46152 -3.36028 -2.99011 -2.76447 -1.44026 -1.09649 
-1.04711 -1.21412 -0.836367 -0.884552 -1.08081 -0.822275 -0.683062 -0.948312 -0.919635 
-0.89381 -0.915279 -0.893854 -1.53087 -0.983352 -1.46945 -1.82546 -1.40545 -1.12278 
-1.06833 -0.354457 -2.77556e-17 -1.38778e-17 -0.24943 6.93889e-18 -2.48411 -1.58764 -1.7705 
-2.27043 -1.54243 -0.989351 -1.1906 -0.517008 -2.08167e-17 2.08167e-17 2.77556e-17 -4.11409 
-3.63684 -3.43459 -2.98713 -2.34098 -4.61759 -4.76268 -5.54273 -5.21812 -1.87257 
-1.73923 -1.26232 -5.78971 -6.10517 -5.76715 -5.6422 -5.03441 -4.794 -5.97584 
-3.83769 -4.28428 -3.13206 -3.30817 -2.49116 -0.918679 -0.423457 -0.504346 -0.544905 
-0.717367 -0.954633 -0.350817 -0.450742 -0.452867 -0.210219 -0.393203 -0.38258 -0.294986 
-0.301241 -0.785959 -0.599428 -0.473843 -0.982581 -0.796156 -0.651387 -0.39683 0 
-0.0483511 -0.0695931 -2.33259 -1.46888 -1.25251 -1.46279 -1.99285 -0.984617 -6.93889e-18 
-0.266527 -0.634895 -3.66993 -4.14885 -3.23316 -3.20948 -2.6398 -2.55405 -2.38631 
-1.94882 -4.83482 -4.59706 -5.73415 -5.97753 -5.6277 -5.2947 -1.41569 -6.30301 
-6.19839 -5.32805 -5.46197 -4.69947 -6.13015 -3.55065 -3.76188 -4.00646 -2.80019 
-3.22612 -2.3332 -0.297096 0 0 -0.238525 1.38778e-17 -5.55112e-17 0 
1.38778e-17 -0.0856006 -0.142523 -0.274279 -0.325643 -0.266848 0 -2.77556e-17 0 
-0.172708 -1.38778e-17 -6.93889e-18 -0.333993 -0.411751 -1.38778e-17 0 -0.682967 -0.197834 
-0.202577 -0.103639 -2.77556e-17 0 -0.0423418 -6.93889e-18 6.93889e-18 -6.93889e-18 -0.529234 
-0.86353 -1.08332 -1.72745 -1.16645 -1.01791 -0.998351 -0.741222 0 -0.0617685 
-0.305705 -3.93167 -4.37701 -3.80255 -3.51038 -2.811 -2.10697 -4.9838 -5.51072 
-5.23691 -4.64609 -5.93876 -6.35867 -1.84507 -1.60218 -1.11163 -6.51471 -5.84576 
-6.46163 -5.19357 -5.36226 -4.48959 -4.23592 -3.73522 -2.49267 -3.00343 -3.22829 
-2.7594 0 -2.77556e-17 -2.77556e-17 0 1.38778e-17 0 0 1.38778e-17 
-2.77556e-17 0 -2.77556e-17 2.77556e-17 0 0 0 -6.93889e-18 1.38778e-17 
-1.38778e-17 2.77556e-17 2.77556e-17 -0.328994 -0.014884 -0.0312157 -1.38778e-17 0 0 
0 -6.93889e-18 0 -2.77556e-17 0 -0.312753 -0.580825 -0.288037 -1.61094 
-2.23778 -0.970127 -1.56019 -0.760911 -0.457174 6.93889e-18 0 -1.38778e-17 -0.160182 
-4.1178 -3.09922 -3.2343 -3.59325 -3.80285 -2.40016 -2.92846 -5.07383 -5.61456 
-5.34097 -4.93624 -4.71774 -4.21895 -6.10735 -6.47584 -6.78423 -1.99354 -1.68233 
-1.29057 -0.922546 -6.84326 -5.47633 -6.13904 -6.57967 -4.93216 -5.0511 -4.08879 
-4.77889 -3.53659 -2.76163 -3.07327 0 0 -1.38778e-17 1.73472e-18 0 
0 -3.46945e-18 -1.38778e-17 -0.890413 -0.871162 -0.53107 -0.167252 -1.38778e-17 0 
0 -2.10252 -1.59986 -2.21406 -1.44315 -1.00275 -0.597768 -1.38778e-17 0 
-0.214801 1.38778e-17 -2.69909 -3.40706 -4.15052 -3.74483 -4.52352 -5.7581 -5.63003 
-6.03568 -5.353 -5.15954 -4.84606 -6.17546 -6.58957 -7.01137 -2.35599 -1.6253 
-1.60629 -1.18257 -0.574368 -6.80522 -5.63295 -5.14599 -6.36437 -5.7586 -4.85574 
-4.39104 -3.73414 -3.62398 -2.46157 -2.52413 -2.66798 -3.31673 -0.753573 -0.222507 
-2.77556e-17 0 -0.0501214 0 -2.06885 -1.62791 -2.26796 -1.87239 -1.30816 
6.93889e-18 -1.38778e-17 -2.97135 -3.12758 -3.52401 -4.55273 -4.46326 -4.10221 -3.99812 
-6.43982 -5.946 -6.33312 -6.72107 -5.23736 -5.56418 -5.18736 -4.95107 -6.84496 
-7.25642 -1.98996 -2.69149 -1.27607 -0.954076 -0.250976 -1.38778e-17 -7.05841 -5.98769 
-5.31392 -6.65896 -4.53944 -4.64564 -4.92658 -3.96762 -3.41876 -2.25514 -2.41079 
-2.88813 -0.466668 -0.736979 -1.14664 -1.38778e-17 2.77556e-17 -1.38778e-17 6.93889e-18 6.93889e-18 
0 0 -2.04236 -1.98536 -1.44399 -1.49618 -3.06728 -3.39555 -3.76898 
-4.82274 -4.47398 -4.15538 -6.05866 -6.65039 -7.0258 -6.42661 -7.36784 -7.11473 
-5.90539 -5.54702 -5.35557 -5.19392 -7.51856 -1.66833 -2.36676 -0.660231 -1.36646 
6.93889e-18 6.93889e-18 0 0 -7.3304 -5.60465 -6.275 -6.14679 -5.69575 
-5.07016 -5.49443 -6.94691 -6.7546 -6.39612 -4.25122 -4.52857 -3.56775 -3.14766 
-1.79315 -2.47576 -2.28169 -2.70578 -2.08167e-17 -0.382056 -0.844631 -1.59193 -0.982148 
-1.05826 -2.762 -3.4573 -4.83087 -4.55092 -3.85711 -6.27515 -7.25425 -6.90286 
-6.61615 -7.79962 -7.56166 -7.71679 -6.26173 -5.92036 -5.73376 -5.57826 -5.25407 
-1.56092 -1.9853 -2.06768 -2.19377 -2.63272 -1.08398 2.08167e-17 -0.381701 -7.61079 
-5.90499 -6.21217 -5.54297 -5.23978 -4.86749 -7.23931 -6.88028 -6.5751 -3.84208 
-4.12821 -4.46765 -3.42009 -2.98655 -1.30353 -2.0133 -1.52665 -2.39849 -2.08167e-17 
-0.507079 -0.322552 -1.12928 -0.781634 -3.17828 -3.70116 -4.95594 -4.26405 -4.67722 
-4.17158 -7.34517 -7.31936 -6.97231 -8.09699 -8.0346 -7.67137 -6.63299 -6.30485 
-6.08377 -5.97628 -5.60191 -1.78968 -1.5233 -2.21078 -2.47863 -2.89341 -0.813021 
-1.2626 -2.77556e-17 1.38778e-17 -0.122104 -0.715624 -7.90673 -7.69987 -6.53044 -5.85527 
-5.18027 -4.80434 -7.55144 -7.20353 -3.71589 -4.02987 -4.38346 -3.30062 -2.57138 
-2.63143 -0.750596 -0.825571 -1.07599 -2.25422 -1.79178 -1.38106 -1.38778e-17 -2.77556e-17 
-2.77556e-17 2.77556e-17 -0.655182 -0.163176 0 -2.77556e-17 -3.57763 -3.99527 -5.36896 
-5.09597 -4.557 -7.66961 -7.33815 -8.4059 -8.36816 -8.01331 -7.01635 -6.6991 
-6.46352 -6.38051 -6.07409 -5.9161 -1.95632 -2.6323 -3.31395 -1.69455 -1.0019 
0 -0.46706 -1.38778e-17 6.93889e-18 0 -8.20918 -7.8838 -6.19024 -6.86968 
-6.74112 -6.34486 -6.04466 -5.7192 -5.51319 -5.15243 -4.72546 -7.55143 -7.40377 
-7.00134 -3.62854 -4.18993 -3.21438 -2.8662 -2.09845 -2.44596 -0.356853 -0.937663 
-1.14801 -1.7138 -1.38778e-17 0 0 0 0 -3.73899 -4.41317 
-4.16233 -5.78965 -5.5206 -4.92418 -8.04013 -8.37383 -7.71962 -7.41288 -8.24159 
-8.72805 -8.74588 -8.71448 -7.10381 -6.79404 -6.49691 -6.20637 -2.37888 -3.06077 
-1.43957 -2.12373 -0.754505 -0.311074 1.38778e-17 -8.21733 -8.55862 -6.90758 -6.54394 
-6.20889 -5.85908 -5.56548 -5.08977 -4.50563 -7.88208 -7.23019 -7.5758 -3.97408 
-3.57629 -3.10323 -2.08133 -2.80955 -2.46685 0 -0.656351 -0.282922 -1.00478 
-1.3726 -1.76281 -3.48925 -4.83668 -4.58756 -4.33953 -3.91581 -5.95063 -5.69272 
-5.28319 -5.26782 -8.42766 -8.74533 -9.07334 -8.11561 -7.81434 -7.51869 -9.06363 
-9.13927 -8.88443 -7.07904 -7.22479 -6.93167 -6.65261 -6.47579 -2.80972 -1.19961 
-1.87511 -2.5568 -0.498082 -0.0775834 0 -2.77556e-17 -8.54861 -8.23544 -6.58812 
-7.26366 -6.25139 -5.84111 -4.79654 -5.48352 -4.90576 -4.33127 -7.92527 -7.62503 
-3.95412 -3.44942 -2.16978 -3.19369 -2.90225 -2.58768 0 -0.663746 -0.369347 
0 -1.06335 -1.47624 -3.23693 -5.01337 -4.76 -4.08104 -4.49611 -3.66088 
-6.3867 -6.12661 -5.54709 -8.82614 -9.12811 -8.52429 -9.44266 -9.76768 -9.43198 
-8.22901 -7.94213 -7.65872 -9.22544 -7.23924 -7.0962 -6.57181 -0.931626 -1.62698 
-1.35175 -2.30172 -2.98021 -0.203881 -0.633801 0 0 -8.89914 -8.58588 
-8.29447 -6.96889 -6.64469 -7.33331 -6.03015 -4.71109 -5.88496 -5.52837 -5.12013 
-5.03843 -4.75953 -4.34902 -8.004 -3.81998 -3.59384 -1.89802 -2.99239 -2.32607 
-3.01388 -2.75771 -3.19503 -0.115209 -1.38778e-17 -0.786409 -0.527288 -1.21151 -5.43924 
-5.18093 -4.91023 -3.81401 -4.21897 -4.62298 -3.40003 -6.56744 -6.68666 -6.30126 
-5.86939 -5.57891 -9.43045 -9.23352 -9.52057 -9.82051 -8.94432 -8.47637 -10.1385 
-9.57051 -9.99344 -8.37751 -8.38125 -8.09801 -7.31643 -7.82139 -9.25514 -6.82971 
-7.54802 -7.27692 -1.05699 -2.03597 -1.75228 -1.45934 -2.71776 -3.01203 0 
0 0 -1.38778e-17 -0.331808 -0.773166 -9.00513 -8.6117 -8.67559 -7.02011 
-6.76248 -6.36214 -7.71704 -7.40739 -6.27493 -5.38624 -5.91841 -5.81921 -5.17068 
-4.56743 -4.19602 -8.3901 -4.00265 -3.70898 -3.28824 -1.64172 -2.07673 -3.44338 
-3.19284 -3.59623 -2.95257 -2.51415 0 0 -0.279965 6.93889e-18 -0.959442 
-5.53722 -5.45579 -5.32208 -5.0252 -3.53808 -3.4405 -3.92904 -4.32372 -4.72067 
-3.17205 -6.76046 -6.73394 -6.84796 -6.02412 -6.44077 -9.64352 -9.80074 -10.2089 
-10.5175 -8.65632 -9.36913 -9.09446 -10.0726 -9.91446 -9.6094 -8.82778 -8.39923 
-8.41673 -8.00848 -8.28217 -9.22112 -7.77345 -7.01124 -7.73046 -7.45787 -1.26066 
-1.04871 -2.44168 -2.14515 -1.84637 -2.62559 -2.84612 0 -0.495593 -0.0265362 
0 0 -0.722887 -9.05884 -8.77589 -7.17256 -6.66947 -7.07082 -8.10252 
-7.79508 -7.62905 -5.58272 -6.32399 -6.23695 -6.0054 -4.95797 -4.42251 -4.13514 
-4.03763 -1.396 -1.83535 -2.27476 -3.87556 -3.63024 -3.39138 -2.71377 0 
0 -0.0405281 -0.717896 -5.73003 -5.18471 -3.24192 -3.05006 -3.62629 -4.01772 
-4.40972 -4.9354 -6.86079 -7.16791 -6.13943 -6.74235 -10.064 -10.3328 -9.92121 
-10.6108 -10.9045 -10.6432 -10.2742 -9.80559 -9.55112 -9.29209 -9.97694 -9.3286 
-9.69282 -9.03146 -8.55766 -8.75947 -8.43872 -8.19533 -8.51632 -7.80417 -7.7783 
-1.18024 -1.4832 -0.894329 -2.54198 -2.23394 -1.92574 -0.166018 0 0 
-0.728775 -9.42457 -9.49186 -9.15226 -8.482 -7.46969 -6.73901 -8.17999 -7.87292 
-5.35681 -6.65233 -6.43217 -5.74465 -4.84863 -4.56973 -4.38441 -1.15814 -1.59576 
-2.03496 -4.31284 -4.06935 -3.8305 -3.15232 -2.47324 6.93889e-18 0 0 
-0.479767 -5.42645 -5.82957 -2.9342 -3.70627 -3.3178 -4.09327 -4.72652 -4.58559 
-5.11718 -7.60153 -7.28927 -6.8624 -6.39953 -6.52042 -10.4752 -10.7568 -10.0222 
-10.7408 -11.3046 -11.0148 -11.1619 -10.4776 -9.41596 -10.0158 -10.3483 -10.0677 
-9.29252 -9.28237 -8.95713 -7.90755 -8.67006 -8.35408 -7.72229 -8.03754 -1.44178 
-1.25708 -2.62148 -2.30861 -1.62393 -2.0012 -1.38778e-17 -0.574013 1.38778e-17 -2.77556e-17 
0 -0.213763 -0.766109 -9.52377 -9.43202 -9.04614 -8.86458 -8.30387 -8.69666 
-7.15195 -7.51325 -7.57616 -8.27454 -8.09689 -5.2789 -6.85589 -6.6076 -6.14663 
-5.44839 -5.88667 -5.00975 -4.52186 -0.926896 -1.43107 -2.31228 -1.79649 -4.51063 
-4.26963 -4.64 -3.59018 -3.15465 -2.85937 -2.77556e-17 -0.557587 -0.241205 -0.84477 
-5.51428 -6.23933 -5.9234 -3.38958 -3.00465 -4.48157 -3.77445 -5.19582 -4.80723 
-6.97559 -7.51628 -6.64653 -11.0977 -10.2582 -10.9661 -11.0215 -11.2966 -11.4547 
-11.5339 -10.5465 -10.721 -11.3915 -10.9367 -11.569 -9.77005 -10.6201 -10.461 
-9.79484 -10.4405 -10.1059 -10.5626 -9.51304 -9.74555 -9.37059 -9.13838 -9.3819 
-8.57845 -8.40709 -7.72489 -1.55353 -0.961169 -1.32597 -2.68788 -2.37238 -1.68647 
-1.53418 -2.05494 -1.38778e-17 -0.273256 -0.63726 2.77556e-17 -0.766722 -9.52538 -9.25014 
-8.79714 -8.57386 -7.28151 -7.96517 -8.23749 -7.79467 -6.32529 -7.03979 -6.75862 
-5.19591 -5.63727 -6.07857 -4.75458 -1.37005 -2.22702 -2.65362 -1.55 -1.13332 
-4.85158 -4.70749 -4.02592 -4.90708 -3.37946 -3.82858 -3.07206 -1.38778e-17 -0.141602 
-0.690845 -0.440823 1.38778e-17 2.77556e-17 -5.50231 -6.20053 -3.07018 -4.11625 -3.82714 
-3.43249 -5.09402 -4.36405 -7.28703 -6.89246 -6.44513 -11.2009 -10.736 -11.633 
-11.2303 -11.6297 -11.908 -11.69 -11.3831 -10.7084 -10.8486 -10.4548 -11.8884 
-11.3214 -10.232 -10.1302 -11.0332 -11.255 -10.9486 -9.62921 -10.5384 -9.98031 
-9.50097 -10.0138 -10.0145 -9.91907 -9.32623 -8.82139 -9.78306 -9.33467 -8.40557 
-8.47166 -7.92491 -8.09893 -7.35943 -7.55274 -1.0856 -2.75004 -2.31749 -1.36272 
-1.88495 -1.64764 -0.666334 -0.293965 -2.77556e-17 1.38778e-17 -2.77556e-17 -1.00012 -9.14225 
-8.64425 -8.41711 -8.26379 -7.48627 -7.15906 -7.3403 -7.64867 -8.13616 -6.30948 
-7.01845 -6.55787 -5.3912 -5.83004 -5.86277 -1.96403 -2.37408 -1.27637 -0.868619 
-4.45596 -4.86102 -4.40051 -3.76653 -4.18131 -2.775 -3.48097 -5.20417e-18 0 
-0.205106 -5.75183 -5.30083 -6.34866 -2.99691 -3.65999 -3.92212 -3.17248 -4.61408 
-4.85334 -7.05574 -6.55721 -12.2385 -12.1868 -11.4669 -12.1478 -12.1112 -11.7391 
-10.351 -10.3199 -10.753 -10.2622 -9.86639 -11.2546 -11.1406 -10.7661 -10.5516 
-11.3926 -11.6895 -11.5625 -11.7712 -11.1032 -9.46441 -8.90391 -10.2527 -10.1896 
-9.67497 -8.90875 -9.27355 -8.87184 -8.26367 -8.12386 -8.76357 -7.44438 -7.41197 
-7.77761 -7.30388 -7.04327 -2.55884 -2.11356 -0.974099 -1.44783 -1.66775 -1.21836 
-0.543877 0 0 0 -1.38778e-17 -0.100711 -8.57252 -6.83957 -7.15285 
-7.49856 -7.87794 -7.99711 -6.10179 -6.37336 -5.14207 -5.568 -5.41444 -5.64789 
-5.19297 -1.67425 -1.87706 -2.59513 -2.06491 -1.14789 -0.505966 -0.653755 -4.87477 
-3.87119 -4.57178 -3.16317 -3.04134 -3.46277 0 0 0 -5.97121 
-5.42598 -4.97583 -6.05711 -2.71444 -3.23962 -4.18243 -4.16741 -3.6723 -3.48192 
-2.79502 -4.4598 -4.39038 -6.54397 -6.04714 -12.2027 -12.7146 -12.6826 -12.2787 
-11.9994 -11.7124 -11.6919 -11.3856 -11.1898 -9.79942 -10.7254 -10.0065 -10.2078 
-9.77477 -9.38035 -10.6076 -11.8044 -11.9984 -11.5122 -11.0653 -10.574 -8.88935 
-8.50629 -10.0986 -9.64001 -10.0819 -9.37527 -9.18613 -8.73278 -8.65046 -8.14786 
-7.78794 -6.96402 -6.91873 -7.65517 -7.27148 -7.17871 -6.82199 -2.30458 -2.11226 
-0.792812 -1.00725 -1.89119 -1.43915 -1.22119 -0.355691 0 0 6.93889e-18 
1.38778e-17 0 -6.67754 -6.93112 -6.61049 -7.36928 -7.87777 -7.95654 -5.91021 
-6.20602 -5.20239 -4.96175 -4.73697 -5.44913 -4.98773 -4.52532 -1.35535 -1.72506 
-2.44435 -2.80858 -0.979959 -0.332717 -2.77556e-17 -3.56137 -4.23054 -4.74434 -3.08655 
-5.01462 -5.55062 -4.53358 -3.72421 -3.20766 -3.26394 -3.03475 -2.57948 -3.95953 
-4.04051 -3.91873 -6.47087 -5.97762 -5.47912 -11.6774 -12.2013 -12.3984 -12.4079 
-12.2096 -12.5079 -12.1557 -11.3788 -11.1771 -11.1597 -10.6925 -9.28649 -9.70399 
-9.69005 -10.1552 -9.65665 -10.4249 -9.21047 -8.79472 -10.097 -11.9466 -11.4761 
-11.0247 -10.9756 -10.518 -10.1465 -8.38722 -8.3377 -8.15115 -9.57514 -10.0133 
-9.16111 -9.19068 -8.60551 -8.05643 -7.56 -6.4317 -6.33293 -7.15354 -6.7779 
-6.69357 -6.66012 -6.28876 -2.11499 -0.571309 -1.04835 -1.64936 -1.18369 -0.774677 
-1.38778e-17 -0.130582 -6.89405 -6.53476 -6.05741 -7.73469 -7.28593 -8.28637 -5.73668 
-5.26898 -5.5822 -4.68856 -4.44085 -4.79892 -4.32916 -4.18718 -0.653918 -1.00728 
-2.07923 -1.73866 -1.32509 -2.3878 1.38778e-17 0 1.38778e-17 -0.247064 -3.77171 
-4.29032 -4.5096 -4.05947 -2.61636 -3.2829 -3.05561 -5.05365 -4.55652 -5.09832 
-4.05739 -2.74339 -3.44141 -2.78971 -2.95045 -3.54464 -3.55822 -5.94158 -5.45558 
-11.6759 -11.9806 -12.2261 -12.2731 -12.4479 -11.6825 -12.1244 -11.1576 -10.6602 
-10.6551 -10.6466 -9.18361 -9.64428 -10.1415 -9.63742 -10.3253 -9.15869 -8.71245 
-8.68772 -11.8609 -11.9029 -11.9523 -11.4543 -11.4148 -10.4883 -10.9554 -10.4489 
-9.94141 -9.54072 -9.48994 -9.46607 -9.91661 -9.07186 -8.96889 -8.55623 -8.03414 
-7.49353 -6.99726 -7.06479 -5.8028 -5.84055 -6.20183 -6.16889 -6.5704 -6.07723 
-2.27918 -0.978556 -1.80334 -1.31362 -0.703653 -0.844557 -0.330593 0 1.38778e-17 
2.77556e-17 0 -6.4132 -6.36489 -6.82374 -6.98655 -5.93214 -7.70826 -8.21247 
-7.24683 -7.46824 -8.2581 -4.69057 -5.11012 -5.45319 -4.28161 -3.91178 -3.86334 
-4.155 -3.67978 -4.38099 -4.06445 -0.911924 -2.16098 -0.939429 -1.20313 -1.91096 
1.38778e-17 1.38778e-17 -0.634668 0 -3.83288 -3.60333 -3.82967 -2.1249 -2.79144 
-3.38502 -3.21217 -2.90607 -4.97735 -4.54942 -5.18351 -4.84524 -4.04829 -2.98249 
-2.45562 -3.04492 -3.05912 -3.54889 -3.05067 -5.33214 -11.7119 -12.1122 -12.0939 
-12.1013 -11.2164 -11.1667 -10.6488 -8.65931 -9.14078 -9.63961 -10.1624 -9.13621 
-9.13877 -10.6638 -8.64219 -11.8204 -11.5348 -11.6154 -11.4059 -11.7932 -10.8756 
-10.9113 -10.4211 -9.93965 -9.43748 -8.93735 -9.90669 -8.48781 -8.50756 -7.99 
-7.45932 -6.96102 -6.50139 -6.46619 -5.69142 -5.51379 -5.58492 -6.05772 -1.96621 
-1.34667 -0.87896 -0.853894 -0.362689 -0.223521 -0.524071 -0.261203 -2.77556e-17 0 
-5.89324 -6.32538 -5.84186 -6.80657 -7.22473 -6.86117 -5.42468 -7.68911 -8.10147 