# vtk DataFile Version 4.2
3D Slicer output. SPACE=LPS
ASCII
DATASET POLYDATA
POINTS 1972 float
-17.351 -173.952 -1262.01 -16.8662 -173.785 -1262.05 -16.75 -173.937 -1262.07 
-17.5109 -174.003 -1262 -16.6755 -173.725 -1262.05 -17.2043 -174.222 -1262.08 
-16.8781 -174.261 -1262.06 -16.1701 -173.619 -1262.02 -15.9451 -174.028 -1261.97 
-16.5337 -174.423 -1261.9 -17.5618 -174.015 -1262 -16.2603 -173.591 -1262.02 
-17.5094 -174.251 -1262.06 -17.4631 -174.431 -1261.97 -17.0599 -174.42 -1261.99 
-16.1661 -173.563 -1262 -15.3345 -173.504 -1261.91 -15.086 -174.227 -1261.8 
-15.7988 -174.439 -1261.83 -16.6144 -174.812 -1261.58 -17.276 -174.671 -1261.7 
-16.069 -174.718 -1261.68 -17.6174 -174.035 -1261.97 -17.7741 -174.319 -1261.94 
-17.9549 -174.553 -1261.71 -15.6637 -173.38 -1261.89 -15.4181 -173.288 -1261.86 
-15.0756 -173.129 -1261.86 -14.2275 -173.751 -1261.74 -14.4479 -173.096 -1261.81 
-14.2299 -174.335 -1261.67 -14.6833 -174.712 -1261.59 -15.451 -174.735 -1261.63 
-16.0771 -175.102 -1261.32 -17.232 -175.063 -1261.17 -18.129 -174.831 -1261.28 
-17.9305 -174.117 -1261.85 -18.2975 -174.281 -1261.7 -18.6828 -174.6 -1261.36 
-14.8886 -173.05 -1261.84 -13.0267 -173.058 -1261.45 -13.2512 -174.239 -1261.46 
-14.6983 -172.99 -1261.85 -14.5686 -172.912 -1261.79 -14.0538 -172.662 -1261.69 
-13.9879 -174.674 -1261.53 -15.1348 -175.118 -1261.36 -14.3367 -175.09 -1261.35 
-16.671 -175.363 -1260.92 -16.1062 -175.49 -1260.93 -15.552 -175.42 -1261.09 
-17.6357 -175.223 -1260.81 -18.3748 -175.115 -1260.71 -17.2023 -175.29 -1260.85 
-19.1391 -174.824 -1260.84 -18.2862 -174.208 -1261.69 -18.4065 -174.234 -1261.65 
-18.7423 -174.312 -1261.45 -18.9567 -174.36 -1261.32 -19.0537 -174.379 -1261.26 
-19.2961 -174.576 -1261.04 -13.2207 -172.134 -1261.43 -13.9192 -172.588 -1261.65 
-12.6283 -172.285 -1261.29 -11.5983 -173.208 -1260.93 -11.8734 -172.425 -1260.99 
-12.0939 -173.853 -1261.14 -12.3045 -174.444 -1261.16 -12.7912 -174.839 -1261.21 
-13.5512 -174.94 -1261.33 -14.8542 -175.579 -1261.01 -13.9335 -175.475 -1261.07 
-16.7321 -175.582 -1260.63 -17.0892 -175.446 -1260.66 -16.4384 -175.537 -1260.79 
-15.7086 -175.783 -1260.72 -16.3398 -175.702 -1260.63 -17.9437 -175.285 -1260.58 
-17.5093 -175.355 -1260.63 -18.9575 -175.224 -1260.22 -19.4665 -175.045 -1260.27 
-18.3919 -175.329 -1260.29 -19.7892 -174.569 -1260.58 -19.8249 -174.823 -1260.37 
-19.4554 -174.438 -1260.96 -19.6148 -174.457 -1260.8 -13.7924 -172.465 -1261.61 
-13.4037 -172.097 -1261.44 -13.2484 -171.922 -1261.36 -12.3831 -171.578 -1260.98 
-11.1209 -173.833 -1260.68 -11.1147 -172.793 -1260.68 -10.6112 -173.336 -1260.35 
-11.4263 -171.804 -1260.61 -11.0345 -172.334 -1260.55 -11.5325 -174.383 -1260.82 
-12.0647 -174.961 -1260.89 -13.1348 -175.33 -1261.06 -12.6091 -175.19 -1261.02 
-15.1264 -176.13 -1260.53 -14.3231 -176.043 -1260.69 -13.4843 -175.917 -1260.75 
-16.8731 -175.829 -1260.27 -17.1152 -175.608 -1260.43 -17.4563 -175.502 -1260.41 
-15.8346 -176.186 -1260.3 -16.3079 -175.971 -1260.35 -17.8667 -175.42 -1260.36 
-19.4678 -175.223 -1259.88 -18.9693 -175.374 -1259.86 -20.0314 -175.078 -1259.69 
-20.0934 -174.899 -1260 -18.2357 -175.558 -1259.93 -19.7833 -174.478 -1260.57 
-19.9006 -174.498 -1260.45 -20.2153 -174.564 -1260.07 -20.2338 -174.646 -1260.05 
-12.9008 -171.507 -1261.11 -12.6514 -171.174 -1260.9 -12.2007 -170.677 -1260.45 
-11.5505 -171.126 -1260.35 -10.5754 -173.896 -1260.34 -10.7046 -174.396 -1260.32 
-10.6474 -172.713 -1260.36 -10.1459 -172.78 -1259.91 -10.0044 -173.489 -1259.83 
-10.1588 -174.062 -1259.95 -11.003 -171.493 -1260.2 -10.7532 -171.953 -1260.22 
-10.5381 -172.383 -1260.21 -11.2396 -174.904 -1260.5 -11.6729 -175.4 -1260.52 
-12.525 -175.708 -1260.69 -15.4569 -176.543 -1260.09 -14.7179 -176.692 -1260.16 
-13.8935 -176.542 -1260.37 -13.1195 -176.513 -1260.37 -17.525 -175.687 -1260.11 
-16.6745 -176.044 -1260.12 -17.3763 -175.915 -1259.89 -17.0442 -176.082 -1259.87 
-17.7559 -175.536 -1260.21 -16.0287 -176.446 -1259.96 -16.5437 -176.26 -1259.91 
-19.7283 -175.348 -1259.27 -18.9464 -175.552 -1259.45 -20.5176 -174.79 -1259.54 
-20.5576 -175.062 -1259.11 -18.5107 -175.721 -1259.44 -17.9519 -175.861 -1259.6 
-20.279 -174.589 -1259.96 -20.5087 -174.658 -1259.55 -12.4171 -170.773 -1260.6 
-12.3239 -170.616 -1260.44 -12.2282 -170.489 -1260.33 -11.3263 -170.272 -1259.63 
-10.9686 -171.062 -1259.92 -10.5955 -175.075 -1260.01 -10.1693 -174.717 -1259.82 
-10.2692 -172.19 -1259.9 -10.0073 -172.395 -1259.71 -9.76335 -172.542 -1259.46 
-9.67359 -173.275 -1259.44 -9.71575 -174.008 -1259.49 -9.8007 -174.613 -1259.49 
-10.3631 -171.574 -1259.68 -11.1157 -175.334 -1260.25 -11.3529 -175.671 -1260.23 
-11.8136 -175.971 -1260.31 -12.3341 -176.552 -1260.22 -15.1898 -176.818 -1259.94 
-16.0323 -176.723 -1259.64 -15.5021 -176.859 -1259.77 -14.1512 -177.047 -1260.03 
-15.2163 -177.207 -1259.55 -14.5501 -177.271 -1259.77 -13.5887 -177.12 -1260.04 
-12.8628 -177.314 -1259.95 -17.5312 -176.067 -1259.59 -17.34 -176.3 -1259.37 
-16.4425 -176.522 -1259.65 -16.856 -176.467 -1259.47 -19.3062 -175.607 -1258.99 
-19.8162 -175.557 -1258.54 -20.4856 -175.292 -1258.52 -18.8728 -175.713 -1259.16 
-20.845 -174.751 -1259.14 -20.6397 -174.698 -1259.4 -20.851 -174.822 -1259.12 
-20.9595 -174.922 -1258.89 -20.9283 -175.056 -1258.67 -18.5324 -175.917 -1259.05 
-17.9653 -176.105 -1259.21 -11.9299 -170.117 -1259.89 -10.6561 -170.904 -1259.56 
-11.7701 -169.85 -1259.55 -10.5766 -170.033 -1258.89 -11.0122 -169.678 -1259.03 
-10.5329 -170.582 -1259.22 -11.4619 -169.407 -1259.09 -10.184 -175.082 -1259.71 
-10.2329 -175.456 -1259.57 -10.8139 -175.731 -1259.87 -9.93042 -175.093 -1259.48 
-9.99411 -172.122 -1259.59 -9.5161 -172.469 -1259.13 -9.7227 -171.967 -1259.2 
-9.51866 -172.864 -1259.22 -9.39468 -173.287 -1259.08 -9.44272 -173.946 -1259.13 
-9.51519 -174.599 -1259.15 -9.63493 -175.123 -1259.16 -10.1951 -171.063 -1259.23 
-9.91902 -171.464 -1259.19 -11.3396 -176.033 -1260.06 -11.5976 -176.586 -1259.96 
-12.0156 -177.286 -1259.85 -16.8935 -176.691 -1259.12 -15.8013 -177.026 -1259.43 
-16.3354 -176.976 -1259.15 -14.0508 -177.622 -1259.66 -16.0771 -177.357 -1258.88 
-15.3978 -177.847 -1258.88 -14.7001 -177.763 -1259.33 -13.4551 -177.682 -1259.75 
-13.0748 -178.075 -1259.61 -12.4164 -177.926 -1259.7 -17.1543 -176.505 -1259.22 
-18.1044 -176.285 -1258.78 -17.5659 -176.508 -1258.88 -19.0273 -175.772 -1258.88 
-19.3584 -175.722 -1258.63 -19.898 -175.632 -1258.17 -20.2379 -175.549 -1257.91 
-19.5552 -175.796 -1258.17 -20.9873 -175.126 -1258.29 -20.9014 -175.285 -1257.76 
-20.9159 -174.774 -1259.02 -20.9988 -174.807 -1258.87 -21.0878 -174.818 -1258.74 
-21.1095 -174.884 -1258.69 -21.1651 -174.931 -1258.43 -18.3014 -176.111 -1258.92 
-19.0021 -175.921 -1258.56 -18.5486 -176.089 -1258.72 -11.5466 -169.42 -1259.14 
-10.7608 -169.526 -1258.73 -10.0444 -170.661 -1258.78 -10.0937 -170.081 -1258.4 
-10.4694 -169.52 -1258.41 -11.0517 -169.313 -1258.8 -11.5171 -169.369 -1259.07 
-11.3938 -169.195 -1258.86 -10.3916 -175.828 -1259.53 -9.83344 -175.524 -1259.2 
-10.083 -175.885 -1259.27 -11.0554 -176.298 -1259.79 -10.48 -176.274 -1259.43 
-9.382 -172.774 -1259.01 -9.31998 -172.251 -1258.74 -9.63484 -171.537 -1258.9 
-9.50226 -171.843 -1258.88 -9.26096 -173.027 -1258.83 -9.22338 -173.796 -1258.79 
-9.30587 -174.575 -1258.85 -9.39903 -175.154 -1258.86 -9.54018 -175.612 -1258.88 
-9.83941 -171.176 -1258.92 -11.5187 -177.105 -1259.75 -10.9883 -176.93 -1259.55 
-11.4203 -177.622 -1259.59 -11.8915 -177.862 -1259.67 -17.8761 -176.706 -1258.26 
-16.9716 -177.061 -1258.55 -13.7065 -178.19 -1259.43 -14.2619 -178.172 -1259.24 
-16.049 -177.847 -1258.41 -16.8401 -177.491 -1258.12 -14.8083 -178.345 -1258.85 
-15.5895 -178.478 -1258.23 -13.345 -178.609 -1259.33 -12.6751 -178.567 -1259.47 
-11.9764 -178.33 -1259.55 -17.9827 -176.487 -1258.56 -18.7047 -176.174 -1258.38 
-18.2901 -176.408 -1258.39 -19.9126 -175.676 -1257.98 -19.8935 -175.786 -1257.62 
-20.2427 -175.65 -1257.46 -20.6097 -175.554 -1257.04 -19.1417 -176.003 -1258.21 
-19.2877 -176.019 -1257.97 -19.4913 -175.971 -1257.76 -21.255 -174.979 -1257.98 
-21.2081 -175.287 -1256.95 -21.3193 -175.118 -1257.46 -21.1306 -174.829 -1258.64 
-21.1678 -174.827 -1258.49 -21.2037 -174.83 -1258.36 -21.2536 -174.824 -1258.15 
-10.8418 -169.227 -1258.55 -9.73152 -170.532 -1258.3 -9.57652 -171.131 -1258.55 
-10.1143 -169.674 -1258.1 -9.83063 -170.044 -1258.02 -10.7681 -169.018 -1258.29 
-10.3655 -169.184 -1257.99 -11.2575 -169.01 -1258.63 -9.745 -175.911 -1258.97 
-9.90333 -176.322 -1258.98 -10.1289 -176.991 -1259.02 -9.44312 -171.651 -1258.7 
-9.13202 -172.393 -1258.48 -9.05724 -173.013 -1258.46 -9.31801 -171.528 -1258.42 
-9.05352 -171.962 -1258.18 -9.05044 -173.99 -1258.49 -9.13593 -174.568 -1258.58 
-9.21213 -175.138 -1258.59 -9.29796 -175.643 -1258.58 -9.44545 -176.175 -1258.6 
-10.6527 -177.677 -1259.24 -11.2159 -178.397 -1259.41 -11.6246 -178.067 -1259.57 
-17.4847 -177.013 -1258.18 -18.6259 -176.363 -1258.08 -17.7187 -176.968 -1258.01 
-18.316 -176.731 -1257.71 -18.567 -176.52 -1257.81 -17.8792 -177.022 -1257.72 
-17.22 -177.179 -1258.19 -14.0756 -178.795 -1258.97 -16.3177 -178.028 -1258.01 
-17.4654 -177.159 -1257.98 -17.1244 -177.606 -1257.66 -17.4103 -177.327 -1257.76 
-16.7283 -177.894 -1257.74 -14.837 -178.868 -1258.51 -15.1698 -179.279 -1258.09 
-16.3054 -178.441 -1257.62 -15.7532 -179.146 -1257.65 -13.1976 -179.246 -1259.16 
-12.0555 -179.041 -1259.43 -19.0055 -176.152 -1258.05 -19.5099 -176.091 -1257.32 
-19.8978 -175.919 -1257.03 -20.1845 -175.739 -1257.16 -20.6429 -175.636 -1256.41 
-21.0989 -175.431 -1256.01 -20.2404 -175.815 -1256.55 -19.0816 -176.245 -1257.71 
-21.3267 -174.814 -1257.94 -21.4492 -174.81 -1257.66 -21.4886 -174.883 -1257.51 
-21.5531 -175.05 -1256.99 -21.5698 -175.157 -1256.37 -11.2377 -168.978 -1258.58 
-9.46089 -170.825 -1258.16 -9.56962 -170.399 -1257.95 -9.38067 -171.141 -1258.29 
-9.98174 -169.528 -1257.75 -9.67228 -169.989 -1257.7 -11.221 -168.947 -1258.54 
-11.0711 -168.686 -1258.23 -10.7414 -168.744 -1258.01 -10.482 -168.817 -1257.78 
[...]
POINT_DATA 1972
SCALARS scalars float
LOOKUP_TABLE default
-6.93889e-18 -1.38778e-17 -0.185609 0 1.38778e-17 -0.332524 -0.450308 -0.0559977 -0.518059 
-0.710434 0 0 -0.282454 -0.440832 -0.544107 -6.93889e-18 -0.247586 -1.01864 
-0.96971 -1.127 -0.761981 -1.17599 -1.38778e-17 -0.252839 -0.433202 0 0 
1.38778e-17 -0.908949 -0.219521 -1.44878 -1.64192 -1.4001 -1.64344 -1.34361 -0.751894 
0 -0.0711886 -0.304661 6.93889e-18 -0.96392 -1.80468 -6.93889e-18 1.38778e-17 0 
-1.87126 -1.92372 -2.15923 -1.88153 -2.13943 -2.1664 -1.51161 -1.14388 -1.70738 
-0.50092 0 -6.93889e-18 -3.46945e-18 0 6.93889e-18 -0.159043 -0.163898 -6.93889e-18 
-0.698803 -2.12061 -1.38436 -2.20994 -2.53115 -2.58702 -2.31615 -2.54061 -2.71845 
-2.20164 -1.97733 -2.15623 -2.59726 -2.40177 -1.53728 -1.76427 -1.16183 -0.72462 
-1.51418 -0.0919759 -0.344751 0 6.93889e-18 6.93889e-18 -1.38778e-17 1.38778e-17 -0.4606 
-2.9359 -2.23049 -3.01341 -1.37505 -2.01196 -3.02825 -3.13698 -2.89035 -3.01447 
-3.1381 -3.22594 -3.36367 -2.56303 -2.22648 -2.01252 -3.10683 -2.77989 -1.79419 
-0.991185 -1.41592 -0.605631 -0.361148 -1.95028 0 -1.38778e-17 0 -0.0763332 
0 0 -0.14675 -0.886354 -3.42682 -3.70081 -2.57038 -3.05279 -3.65124 
-3.91848 -1.54716 -2.02222 -2.4591 -3.68021 -3.80165 -3.57903 -3.60885 -3.8983 
-3.91211 -4.13919 -2.27522 -2.87003 -2.625 -2.90571 -2.00783 -3.44683 -3.19352 
-1.13083 -1.71656 -0.140566 -0.437905 -2.11639 -2.47568 0 0 -1.38778e-17 
-1.38778e-17 0 -0.602318 -1.33413 -4.34976 -4.41529 -2.578 -2.93302 -3.25211 
-3.81643 -4.29119 -4.66883 -2.14269 -4.14969 -4.27735 -4.24705 -4.5238 -3.98435 
-3.84907 -4.01956 -4.41525 -4.49664 -4.6147 -4.63605 -5.07243 -2.83235 -3.20393 
-3.57575 -3.47868 -1.69053 -1.47608 -0.829734 -1.98459 -6.93889e-18 1.38778e-17 -0.0799895 
-0.141712 -0.317953 -2.38687 -2.81051 2.77556e-17 -1.51532 0 -1.12236 -0.557592 
-1.45024 -0.0706035 -4.70434 -4.99464 -4.74943 -4.94285 -2.784 -3.44353 -2.94719 
-3.68944 -4.10117 -4.52067 -4.93937 -5.24691 -2.00815 -2.47722 -4.62431 -4.96929 
-5.40049 -3.81833 -4.26349 -4.25316 -5.09345 -4.77206 -5.32487 -5.1974 -5.28039 
-5.79158 -5.84959 -3.51444 -3.01177 -3.46584 -2.03173 -1.86778 -1.58889 -1.36039 
-1.9404 -0.429312 -0.733745 0 0 0 -0.0735502 -0.140006 -2.71526 
-2.26303 -2.61633 6.93889e-18 -0.697535 -1.9345 -1.59314 -0.958584 -0.343381 0 
6.93889e-18 -5.18824 -5.4105 -5.50697 -5.07504 -5.50398 -3.77083 -3.51685 -2.78189 
-3.08324 -4.07068 -4.65191 -5.14406 -5.51058 -5.76063 -2.39342 -5.49909 -5.68667 
-6.02633 -6.00289 -3.63651 -4.33401 -5.77842 -5.69524 -5.38745 -4.87356 -5.88931 
-5.65273 -6.28408 -6.39876 -6.40908 -3.30985 -2.69584 -3.12064 -1.662 -1.84508 
-1.53482 -1.28575 -2.34583 -2.33282 -2.21969 -0.226559 -0.690495 -0.395286 -6.93889e-18 
1.38778e-17 0 -1.38778e-17 -0.479181 -2.16937 -2.62442 -1.37549 -1.83709 -0.444936 
-0.901416 -2.77556e-17 -5.83281 -6.04127 -6.38708 -3.03456 -3.80404 -4.29339 -3.10026 
-3.6355 -4.99011 -5.33033 -5.70009 -6.03207 -6.337 -6.55416 -6.8218 -6.318 
-4.11983 -2.97736 -3.99889 -3.5492 -3.20744 -4.03055 -4.39627 -6.39506 -5.47878 
-4.30303 -4.9324 -4.5289 -5.27837 -5.96159 -5.54266 -5.08675 -5.10353 -6.89117 
-7.038 -2.5896 -2.39616 -2.06215 -1.70132 -1.42803 -0.986208 -1.82678 -2.70335 
1.38778e-17 -1.38778e-17 -0.10404 -0.296746 -0.445849 1.38778e-17 -2.58581 -2.27272 -2.82541 
-1.45331 -1.98786 1.38778e-17 -0.0527122 -0.346371 -0.629381 -0.987525 -6.4961 -6.5105 
-6.38493 -4.67088 -5.0863 -4.29348 -2.94755 -3.69145 -3.2378 -4.01728 -5.5263 
-5.79954 -6.16885 -6.29491 -6.16724 -6.24272 -6.94353 -7.02735 -6.53781 -3.27017 
-3.72738 -4.09499 -4.63366 -6.41041 -6.02319 -4.962 -5.65908 -5.16779 -4.75884 
-4.66641 -4.7849 -6.73655 -6.42798 -6.33084 -6.46825 -2.82096 -2.75652 -2.48961 
-2.16526 -1.56536 -0.393724 -1.36117 -0.79377 -0.313581 -2.29769 -1.99596 1.38778e-17 
0 6.93889e-18 -3.46945e-18 -0.152562 -0.104849 -2.57838 -2.35336 -1.21933 -1.72133 
-2.19094 -6.93889e-18 6.93889e-18 0 -2.77556e-17 -0.196685 -0.649298 -6.18752 -6.7936 
-6.4037 -6.0561 -6.02591 -4.73816 -5.01826 -5.39082 -5.71261 -4.56497 -2.70054 
-4.08397 -3.88354 -3.50737 -3.09047 -6.11901 -6.05533 -5.94298 -5.88472 -6.53184 
-5.88443 -5.92687 -6.20419 -3.40774 -3.1123 -3.86764 -4.40131 -4.83807 -4.86142 
-4.75915 -4.64598 -5.83685 -5.39989 -5.18358 -5.23305 -4.98659 -4.52193 -4.23069 
-4.37503 -4.93034 -4.67432 -4.56717 -6.22466 -5.75858 -3.05811 -2.72794 -0.0869319 
-1.64646 -0.945682 -0.284395 0 0 0 -2.44782 -2.24646 0 
-0.0583018 6.93889e-18 -6.93889e-18 0 0 0 -0.974026 -1.48588 -1.96028 
-2.43771 1.38778e-17 0 -0.0858363 -0.449673 -6.42778 -6.34559 -6.12309 -5.82239 
-5.85029 -5.89182 -5.58856 -5.26439 -5.88601 -6.20293 -4.37334 -5.27631 -4.7921 
-2.87097 -4.23718 -3.94041 -4.092 -3.25462 -3.68683 -5.94854 -5.75524 -5.75467 
-5.63453 -5.52805 -5.8134 -5.70955 -5.29737 -5.24596 -3.5003 -4.03497 -4.60023 
-4.56429 -4.34921 -5.1432 -4.94208 -4.67402 -4.21498 -4.25191 -4.1829 -3.98782 
-3.81246 -3.99351 -4.45043 -3.98092 -4.68123 -4.70901 -5.26948 -5.16374 -3.64088 
-3.15522 -2.67294 0 -1.4455 -1.92944 -0.326424 -0.740628 -1.11503 2.77556e-17 
0 -2.66896 -2.39199 0 0 -0.796101 -1.28343 -1.80501 -2.19324 
-2.48713 -2.77912 -1.38778e-17 0 6.93889e-18 2.77556e-17 -0.305805 -5.28893 -5.75689 
-6.45939 -6.06099 -5.68773 -5.72013 -5.30516 -5.32628 -5.38704 -5.95975 -5.80045 
-5.75737 -4.48421 -5.13558 -3.0808 -4.22705 -3.42859 -3.93367 -5.64782 -5.50179 
-5.34841 -4.98484 -4.46923 -4.51741 -4.09866 -4.4336 -4.28345 -4.19494 -4.00522 
-4.19857 -4.12057 -4.78267 -4.42032 -4.35487 -4.06854 -4.00386 -3.58553 -3.36846 
-2.80528 -4.3747 -3.98438 -3.43563 -3.83679 -3.70016 -3.39608 -3.54472 -4.21606 
-3.53531 -3.75741 -4.42438 -4.94217 -4.69069 -3.78602 -2.94078 -1.70002 -2.28541 
-2.77556e-17 -0.649975 -1.38778e-17 -0.257398 -1.48958 -0.968699 -0.680926 -1.16244 -1.55764 
-2.35727 -1.76335 -1.96006 -2.74009 -3.14684 -1.38778e-17 -1.38778e-17 -0.141353 -4.7478 
-4.45316 -4.86245 -5.09448 -6.30962 -5.40788 -6.18561 -5.91728 -5.54919 -5.08584 
-5.08309 -5.0966 -5.28063 -5.22267 -5.28057 -5.39041 -5.45306 -4.88733 -5.07012 
-4.75999 -4.79216 -3.55536 -3.80127 -4.18317 -5.20743 -4.18185 -3.74103 -3.38226 
-3.6416 -4.03051 -4.16411 -4.23498 -4.01348 -3.73107 -4.01118 -3.46902 -3.704 
-4.23728 -3.67161 -3.83625 -3.87714 -3.79771 -3.34791 -3.16671 -2.91508 -2.3876 
-1.70286 -1.8232 -2.68234 -4.08007 -3.638 -3.14064 -3.45161 -3.51242 -3.09439 
-3.13213 -3.04478 -3.04139 -3.84469 -3.87794 -3.68974 -3.35031 -3.60415 -3.34756 
-2.84045 -2.0902 -0.589274 -1.38778e-17 -0.336955 -2.77556e-17 -1.24366 -1.54107 -1.87668 
-0.795773 -0.461508 -1.30877 -1.40257 -1.60316 -2.69657 -2.66217 -1.78798 -2.13917 
-3.00153 -3.47715 -1.38778e-17 0 0 -3.62328 -4.01646 -4.54254 -4.79697 
-5.45673 -5.82358 -5.73391 -6.07113 -4.92963 -5.12613 -5.36084 -4.72226 -4.84056 
-4.99275 -4.95694 -5.0761 -4.77869 -4.47035 -5.13164 -4.94842 -5.38121 -4.78045 
-4.15684 -3.96793 -4.6772 -5.02698 -4.58253 -3.85821 -4.11724 -3.098 -2.88645 
-2.64877 -2.95158 -3.2228 -3.38682 -3.06163 -3.36971 -2.9771 -2.89325 -2.8684 
-3.31853 -2.94065 -2.67006 -2.78273 -2.33498 -2.5418 -2.15988 -1.49927 -0.879159 
-1.03584 -1.05563 -1.43048 -1.80951 -2.19737 -2.65836 -3.20697 -3.19301 -2.80796 
-2.99944 -2.74172 -2.5006 -2.81355 -2.60964 -3.2032 -3.45745 -3.45562 -3.31914 
-3.44458 -3.28077 -2.83548 -2.67995 -2.44933 -2.43735 0 -0.0491739 -0.562776 
-1.57319 -1.06392 -1.89039 2.77556e-17 0 2.77556e-17 -1.45673 -0.400315 -1.11994 
-1.85307 -3.22922 -2.29618 -2.86723 -3.20704 -3.69314 -2.90271 -3.17016 -3.42267 
-4.02603 -4.27258 -4.41617 -5.09046 -5.03565 -5.36307 -5.49359 -5.6037 -5.45328 
-5.707 -5.81307 -4.78364 -5.17157 -5.37984 -4.54729 -4.24366 -4.30036 -4.68758 
-4.78003 -4.85357 -3.85455 -4.72664 -4.2542 -3.31409 -3.88922 -3.60167 -3.28933 
-4.20361 -4.51945 -4.80085 -4.9263 -4.65941 -4.24226 -3.48694 -4.31075 -3.71794 
-2.27968 -2.10896 -2.28588 -1.96443 -2.45685 -2.2117 -2.73786 -2.3827 -2.52726 
-2.47294 -2.56432 -1.93613 -1.45828 -2.50795 -2.15047 -2.41759 -1.94447 -1.4291 
-1.97683 -1.49586 -0.651129 -0.250998 -0.48915 -0.533845 -0.606249 -1.01475 -1.29143 
-1.59112 -1.99922 -2.64999 -2.3971 -2.43835 -2.16768 -2.40884 -1.97338 -2.22585 
-3.04257 -2.37603 -2.35693 -2.46181 -3.16777 -2.83072 -3.16151 -2.70587 -2.5451 
-2.73199 -2.43978 -2.38289 -2.35889 -2.25474 -2.12824 -2.02475 -1.93639 0 
-0.522478 -0.178955 0 -6.93889e-18 0 -1.41792 -1.66161 -0.879049 -1.21652 
-1.44921 -1.51021 -1.02066 0 -1.92011 -1.87683 1.38778e-17 -0.626075 -1.75207 
-2.42705 -2.90903 -3.42529 -3.9214 -2.63897 -2.49474 -3.00821 -3.72784 -4.01534 
-3.85519 -3.92475 -4.11888 -4.63487 -4.84141 -4.87362 -5.38891 -5.18465 -5.60624 
-5.70966 -5.53283 -5.06812 -4.22802 -4.4778 -3.90575 -3.76495 -4.47375 -4.8413 
-4.54207 -3.41963 -3.8771 -3.17113 -2.66971 -2.70374 -3.62244 -3.27486 -2.83629 
-4.35159 -4.69816 -4.91514 -2.8501 -2.93957 -2.81163 -4.5582 -3.99764 -3.4879 
-1.81306 -1.63105 -1.03196 -1.27011 -1.17541 -1.25559 -1.09297 -1.62128 -2.26501 
-1.60886 -2.22296 -2.0458 -2.16223 -1.13226 -1.16992 -0.8024 -0.509031 -0.494763 
-0.912258 -1.42856 -0.637792 -0.882543 -0.463965 -0.174833 -0.10591 -1.38778e-17 -2.77556e-17 
-0.261222 0 -0.278147 -0.282124 -0.2167 -0.683293 -0.133779 -0.977688 -1.39789 
-1.62538 -2.14962 -1.85392 -2.4269 -2.00551 -1.78616 -1.56409 -1.66372 -1.97702 
-2.12773 -2.20404 -2.03207 -1.93678 -1.75312 -2.446 -2.19997 -2.20198 -2.08536 
-2.07515 -1.8284 -2.10302 -1.93274 -1.74487 -1.64657 -1.55422 -0.17031 -0.555228 
0 -1.33134 -1.12596 -0.541714 -0.84132 -1.20007 -0.910901 -0.469788 -0.653868 
-0.118413 1.38778e-17 -0.0560223 -0.139309 -1.03117 -2.54231 -1.80677 -2.35133 -3.03954 
-3.62412 -3.8964 -1.89864 -2.85142 -3.51555 -3.34717 -3.31089 -3.54133 -3.20748 
-4.33144 -3.59426 -4.35169 -4.60373 -5.31223 -5.18699 -4.81976 -5.6105 -4.88292 
-4.02955 -3.52908 -3.10308 -4.06397 -4.56924 -4.11541 -2.16602 -2.32131 -2.11985 
-2.39169 -2.49549 -4.09682 -4.67729 -4.8889 -2.2874 -2.28586 -2.79058 -2.39072 
-4.4634 -3.80689 -3.33924 -0.325368 -0.176032 -0.463465 -1.07908 -0.761098 -0.435391 
-0.780533 -0.345632 -1.00733 -1.95826 -1.93086 -1.71646 -1.64945 -0.591217 -0.691152 
-0.431353 -0.105996 -0.0885875 -0.0666492 -0.198848 -0.242726 1.38778e-17 0 -1.38778e-17 
-1.38778e-17 1.38778e-17 -1.38778e-17 0 0 1.38778e-17 -2.77556e-17 -0.600937 1.38778e-17 
1.38778e-17 -0.323305 -1.38778e-17 0 -0.769833 -0.997892 -1.27568 -1.58058 -1.90547 
-2.04527 -1.45615 -1.20433 -1.32244 -1.49688 -1.73701 -1.80602 -1.65655 -1.59113 
-1.45758 -1.45751 -1.24972 -1.55704 -1.87552 -1.52945 -1.46761 -1.17584 -1.74526 
-1.33718 -0.960681 0 0 1.38778e-17 2.77556e-17 -0.259368 -1.12974 -0.807307 
-0.328941 -0.581424 -0.688537 -0.455094 -3.46945e-18 -8.67362e-18 -0.220588 0 1.38778e-17 
1.38778e-17 -6.93889e-18 -6.93889e-18 0 -1.38778e-17 -1.38778e-17 -0.536242 -1.39882 -2.47631 
-3.20169 -3.54636 -0.815798 -1.43539 -2.30505 -2.85441 -2.91822 -2.51589 -2.80515 
-2.76607 -2.2703 -2.76388 -3.83901 -3.1474 -4.04557 -4.31743 -4.94679 -5.20155 
-4.83386 -5.38109 -3.66728 -3.17835 -2.82692 -3.58765 -4.70779 -4.21161 -3.80924 
-2.05206 -1.78316 -1.90343 -1.90617 -2.72997 -2.37237 -2.12821 -3.6648 -4.14603 
-4.35611 -1.92386 -1.62216 -2.04505 -2.16765 -1.59444 -2.74329 -4.02355 -3.67136 
-3.29568 -1.38778e-17 0 0 0 -1.38778e-17 -2.77556e-17 0 2.77556e-17 
0 -0.0448738 1.38778e-17 -0.528133 -0.335449 -0.0761826 6.93889e-18 3.46945e-18 -1.13505 
-0.340335 -0.153839 -1.38778e-17 -1.38778e-17 0 0 0 0 0 
1.38778e-17 0 6.93889e-18 -0.592002 2.77556e-17 -0.584047 -0.101846 -0.93128 -1.10296 
-1.23469 -0.798724 -0.926257 -1.01058 -1.2383 -1.47898 -1.35995 -1.30544 -1.02464 
-1.14736 -0.760298 -0.979389 -0.922771 -1.1857 -1.05124 -0.869493 -0.942514 -0.943379 
-0.76843 -0.67615 -0.771545 -0.546154 -0.558261 0 -1.38778e-17 0 -0.261916 
-0.122151 -0.174244 2.77556e-17 0 2.77556e-17 1.38778e-17 -0.288023 -0.739197 -1.37735 
-2.0791 -2.75985 -3.2043 0 -0.517911 -0.633518 -1.154 -2.18585 -1.62361 
-1.70406 -2.42404 -2.60206 -2.19879 -1.78198 -1.20735 -1.83855 -2.40458 -3.42631 
-2.74448 -3.68477 -4.32541 -3.90001 -4.94774 -4.83039 -4.24473 -5.10844 -4.88359 
-3.12196 -3.44932 -4.31124 -3.81974 -1.7236 -1.8578 -1.55146 -1.38934 -2.97133 
-2.67681 -2.21465 -3.70326 -4.04204 -4.23782 -4.0588 -3.82499 -1.53503 -1.5273 
-1.34135 -1.23648 -1.19167 -2.26029 -1.62109 -1.25891 -1.04362 -0.883903 -2.77538 
-3.48776 6.93889e-18 0 -6.93889e-18 3.46945e-18 -6.93889e-18 0 -0.796898 1.38778e-17 
-1.38778e-17 -0.668256 -0.229332 0 0 -0.92576 -0.444145 -0.20785 -0.698491 
-0.881412 -1.15473 -1.01185 -1.00046 -0.874831 -0.53959 -0.517925 -0.321121 -0.419202 
-0.621503 -0.589822 -0.489205 -0.558093 -0.526816 -0.620105 -0.389793 -0.605308 -0.411204 
-0.23328 -0.185358 -0.235482 1.38778e-17 0 0 -2.77556e-17 0 -1.38778e-17 
-2.77556e-17 1.38778e-17 -0.192372 -0.975609 -1.992 -2.73182 -3.39792 -1.38778e-17 1.38778e-17 
6.93889e-18 -0.120622 -0.449572 -0.647779 -1.00256 -0.841926 -0.807031 -1.74323 -1.26969 
-1.06055 -0.571177 -0.517198 -1.13737 -0.732514 -1.8261 -1.32734 -2.09337 -3.03475 
-2.34049 -3.34838 -3.45413 -4.72889 -3.62002 -4.10019 -4.7801 -4.43206 -4.36834 
-4.25128 -3.19484 -3.47148 -4.34928 -1.51851 -1.86632 -0.922756 -1.09741 -2.76208 
-2.43852 -2.17118 -3.88651 -3.99081 -3.81082 -3.48295 -3.45125 -1.25763 -1.22179 
-0.964267 -0.948002 -0.721425 -2.16929 -1.6555 -1.04159 -0.980597 -0.457278 -0.404146 
-0.581877 -2.77308 -3.09416 -0.264721 0 -1.38778e-17 -1.38778e-17 0 0 
0 2.77556e-17 -0.096361 0 -0.486302 -0.582114 -0.506396 -0.524121 -0.0658508 
-0.128346 -0.124652 1.38778e-17 -3.46945e-18 -0.259182 -0.206191 -0.103705 -0.188302 -0.0350448 
-0.241066 -0.0360154 1.38778e-17 -2.77556e-17 -1.38778e-17 0 1.38778e-17 1.38778e-17 0 
-1.38778e-17 -1.38778e-17 0 -0.00948001 -0.30759 -1.85432 -1.04434 -1.8676 -2.98206 
-2.40408 -3.41503 1.38778e-17 0 1.38778e-17 -0.239446 -1.38778e-17 -0.342468 -0.585743 
-0.448493 -0.251515 -0.304918 -0.250269 -0.656329 -0.0235504 -0.23112 -0.251852 -0.728782 
-1.52314 -1.055 -1.77082 -2.65119 -1.8011 -2.94615 -3.68254 -3.24092 -4.09539 
-3.69904 -4.05088 -4.01544 -4.19738 -3.82057 -3.22239 -3.33459 -1.67811 -1.30755 
-2.01243 -0.42681 -0.652965 -0.857233 -2.69364 -2.39431 -3.66283 -3.49595 -3.30284 
-2.93348 -0.836043 -0.491201 -0.424448 -0.280895 -2.00843 -1.54298 -0.52786 -1.21965 
-0.701892 1.38778e-17 6.93889e-18 -0.0830682 -0.279852 0 -0.143507 -0.151479 -2.37591 
-6.93889e-18 -1.38778e-17 -1.38778e-17 -0.0234965 3.46945e-18 -0.318761 2.77556e-17 0 2.77556e-17 
2.77556e-17 1.38778e-17 2.77556e-17 3.46945e-18 -6.93889e-18 6.93889e-18 1.38778e-17 6.93889e-18 -6.93889e-18 
0 0 1.38778e-17 -6.93889e-18 -6.93889e-18 1.38778e-17 0 0 0 
0 -6.93889e-18 0 6.93889e-18 -6.93889e-18 0 0 1.73472e-18 1.73472e-18 
0 -0.0234394 2.77556e-17 -0.281919 -2.36695 -1.16614 -0.379454 -1.59108 -1.80369 
-2.30471 -1.72014 -3.40008 -2.96805 -2.61809 -1.38778e-17 3.03577e-18 -1.0842e-17 -0.109415 
4.33681e-19 0 0 -1.38778e-17 1.38778e-17 1.38778e-17 -1.38778e-17 2.77556e-17 0 
-3.46945e-18 0 2.77556e-17 0 -0.18747 0 1.38778e-17 -0.652357 -1.1877 
-2.06331 -2.60121 -2.34834 -1.1583 -1.60849 -2.57182 -2.48553 -2.81415 -3.53311 
-3.80244 -3.39593 -3.0019 -3.32913 -2.84656 -3.19427 -2.69878 -2.85473 -2.91751 
-1.71024 -1.01478 -1.26929 -2.19324 2.77556e-17 2.77556e-17 -0.125532 -0.415524 -0.680327 
-2.47489 1.38778e-17 -0.0477694 0 1.38778e-17 -2.77556e-17 0 -1.54136 -0.372094 
-0.664511 -0.460122 -0.310631 0 0 -0.109525 -6.93889e-18 -6.93889e-18 -1.38778e-17 
1.38778e-17 0 0 -1.90623 0 -6.93889e-18 1.73472e-18 0 -3.46945e-18 
-2.77556e-17 -2.43156 -0.630131 -1.05735 -0.518847 0 -0.169201 -2.77556e-17 -1.16613 
-1.28372 -1.95016 -0.922257 -1.00847 -2.27784 -2.00909 0 0 1.38778e-17 
1.38778e-17 -0.379879 -0.186528 -1.38778e-17 0 -0.586171 -2.00276 -0.81765 -1.14845 
-1.91659 -1.60268 -2.76641 -2.11958 -2.5085 -2.669 -2.46455 -2.60414 -1.96109 
-1.47602 -0.883081 -1.00343 1.38778e-17 0 0 1.38778e-17 -0.322143 -0.4848 
0 6.93889e-18 0 -1.2036 -0.304197 -0.0712102 -0.152811 -0.137669 -3.46945e-18 
6.93889e-18 -0.0467455 6.93889e-18 -3.46945e-18 -1.74813 -0.142019 -0.396891 -0.423364 -0.445818 
1.38778e-17 -2.77556e-17 0 0 1.38778e-17 0 -0.627063 -1.36932 -0.233578 
-0.516309 -0.182966 -0.0861259 1.38778e-17 -0.498242 -0.468546 -1.29694 -0.812193 -1.03129 
-0.876307 -0.871457 -1.41474 -0.76322 -1.95591 -1.51259 -1.67216 -1.98812 -2.08761 
-2.05965 -2.14732 -1.8772 -1.7189 -1.28525 -0.590913 -0.695419 -0.931991 0 
-0.0775376 -0.0783226 0 0 0 -2.77556e-17 0 -6.93889e-18 0 
6.93889e-18 0 6.93889e-18 3.46945e-18 -3.46945e-18 6.93889e-18 0 -1.38778e-17 1.38778e-17 
-0.0828294 -0.340832 0 0 -0.0131205 0 0 -0.186616 1.38778e-17 
0 6.93889e-18 0 0 -0.161926 6.93889e-18 -3.46945e-18 -2.77556e-17 1.38778e-17 
-0.0328745 3.46945e-18 -0.396353 -0.074246 -0.667379 -0.346931 -1.11688 -3.81639e-17 -0.843174 
1.73472e-18 -0.0760305 -1.21874 -1.69531 -1.45318 -1.81402 -1.82747 -1.93472 -0.891078 
-1.69621 -0.876597 -1.44683 -1.08388 -0.390491 -0.614969 -6.93889e-18 -6.93889e-18 -6.93889e-18 
0 0 -0.0538778 0 0 -1.38778e-17 -3.46945e-18 -0.0651328 -1.73472e-18 
1.73472e-18 0 0 1.38778e-17 1.38778e-17 0 0 -0.160308 -1.38778e-17 
6.93889e-18 0 -2.77556e-17 -6.93889e-18 -0.0888365 -0.438114 -6.93889e-18 6.93889e-18 0 
6.93889e-18 -0.943118 -0.750494 -1.51183 -1.6008 -0.461063 -0.344194 -0.432544 -1.28271 
-1.34449 -0.993024 -0.153289 -0.255923 -1.01818 -0.217672 -0.436044 6.93889e-18 6.93889e-18 
0 -5.20417e-18 1.38778e-17 2.77556e-17 0 -1.73472e-17 0 -1.23023 2.08167e-17 
-1.38778e-17 -0.0800625 0 -1.01334 -0.971495 -1.05703 -1.01227 -0.825494 0 
1.38778e-17 0 -0.543547 2.77556e-17 -0.153708 -2.77556e-17 -2.77556e-17 -0.869665 -0.666154 
0 -0.0481551 -3.46945e-18 -2.77556e-17 -0.338824 0 0 -0.635434 -0.793967 
-0.827186 -0.69281 -0.513175 -2.77556e-17 0 -0.581621 3.46945e-18 0 1.38778e-17 
-0.332589 1.38778e-17 -0.104801 -0.436388 -0.401192 -0.230837 2.77556e-17 6.93889e-18 -6.93889e-18 
-0.0785066 0 -1.38778e-17 3.46945e-18 6.93889e-18 -2.25514e-17 1.73472e-18 0 0 
0 
