# vtk DataFile Version 4.2
3D Slicer output. SPACE=LPS
ASCII
DATASET POLYDATA
FIELD FieldData 2
MaterialNames 1 2 string
mtl1
NO_MATERIAL

MaterialLibraries 1 1 string
CIIFD_vtkMRMLModelNodeF.mtl

POINTS 1611 float
29.1264 -11.1493 1.98365 29.3435 -11.2943 2.16465 29.0258 -11.3048 2.28128 
28.7905 -11.0964 2.08079 29.026 -11.0058 1.82981 29.2497 -11.0514 1.81994 
29.4635 -11.1344 1.91337 29.2946 -11.4624 2.48548 29.588 -11.4232 2.38703 
29.7507 -11.2581 2.12788 28.7401 -11.3199 2.49912 29.0341 -11.5047 2.69701 
28.484 -11.1202 2.36668 28.4451 -10.8413 2.02481 28.8087 -10.8721 1.79738 
29.0302 -10.8912 1.71741 29.0677 -10.8973 1.7177 29.1794 -10.9436 1.74608 
29.2361 -10.9668 1.75315 29.408 -11.0154 1.77653 29.4413 -11.0213 1.78296 
29.5859 -11.0469 1.80906 29.7831 -11.0769 1.89541 29.5515 -11.5541 2.65906 
29.3794 -11.6449 2.90389 29.7991 -11.5191 2.62489 29.9568 -11.3934 2.42261 
30.0941 -11.2629 2.24104 30.0182 -11.1624 2.06392 28.4583 -11.3159 2.77859 
28.7352 -11.5079 2.92425 29.0851 -11.7218 3.23822 28.2672 -10.9478 2.33459 
28.2239 -11.0979 2.65021 28.5913 -10.7057 1.75788 28.3801 -10.6196 1.82185 
28.1533 -10.5173 1.98521 28.0563 -10.6866 2.30583 28.8052 -10.7516 1.71588 
28.9125 -10.8166 1.71596 28.6961 -10.6889 1.71027 29.0372 -10.8835 1.71278 
29.0213 -10.8763 1.71099 29.5233 -11.0305 1.79163 29.5943 -11.0347 1.80309 
29.7254 -11.0169 1.8335 29.8522 -10.9957 1.85479 30.0844 -11.0274 1.96181 
29.7573 -11.6593 2.97125 29.5778 -11.7422 3.13414 29.4381 -11.7727 3.23471 
30.1358 -11.5289 2.83158 30.3316 -11.3166 2.49707 30.3241 -11.1146 2.18515 
28.1449 -11.2636 3.13595 28.4529 -11.469 3.13027 28.6606 -11.6363 3.31508 
29.2279 -11.9322 3.80433 28.8175 -11.7983 3.61298 29.4319 -11.8527 3.49443 
28.0729 -10.8948 2.53051 27.9476 -10.9733 2.89791 28.5104 -10.5695 1.71278 
28.6218 -10.6496 1.7049 28.4718 -10.5414 1.71614 28.2548 -10.4633 1.80735 
28.3583 -10.5157 1.7507 28.4484 -10.5251 1.7146 27.9539 -10.162 1.96685 
27.8565 -10.3032 2.22301 28.1203 -10.3299 1.86319 27.7267 -10.4353 2.5795 
27.8233 -10.7208 2.72397 29.9768 -10.9688 1.87709 30.1214 -10.9287 1.91971 
30.3328 -10.9286 2.02467 30.1134 -11.7194 3.3459 29.7221 -11.8095 3.385 
30.5421 -11.4104 2.89671 30.3948 -11.579 3.17434 30.6246 -11.24 2.62508 
30.5604 -11.1469 2.41304 30.4789 -10.9562 2.12945 30.6416 -10.9659 2.27101 
28.3191 -11.5497 3.50315 27.743 -11.0392 3.44113 27.9882 -11.3553 3.57464 
28.5648 -11.703 3.57013 29.1528 -12.0719 4.24595 28.8349 -11.9345 3.99511 
29.6644 -11.9453 3.82788 29.5674 -12.1014 4.34098 28.4647 -11.7633 3.84956 
27.7032 -10.8101 3.10726 28.31 -10.3987 1.74069 28.2129 -10.3237 1.77678 
28.1847 -10.2901 1.78572 28.3422 -10.4323 1.7299 28.0707 -10.0776 1.80777 
27.9046 -9.82106 1.88353 27.7674 -9.9453 2.11504 27.6041 -10.0563 2.50143 
28.1549 -10.2099 1.78145 27.5018 -10.2763 2.966 27.629 -10.5309 2.87373 
27.6419 -10.6622 3.00579 30.2262 -10.896 1.9518 30.3486 -10.8563 2.00842 
30.5831 -10.8006 2.11451 29.9704 -11.8753 3.72447 30.4847 -11.6695 3.58917 
30.2615 -11.8355 3.86538 30.7805 -11.246 2.83594 30.8295 -11.3475 3.14818 
30.6445 -11.5103 3.29716 30.8751 -11.0103 2.58788 30.8337 -10.8838 2.36303 
30.8018 -10.7842 2.25304 28.0885 -11.5756 3.86875 27.5555 -10.7398 3.37298 
27.7557 -11.3347 3.91493 27.5292 -11.0609 3.89398 27.4538 -10.7851 3.69102 
29.095 -12.162 4.5296 28.7746 -12.0612 4.40339 29.3384 -12.1819 4.5544 
28.5095 -11.9106 4.18353 30.0363 -12.0131 4.26197 29.5421 -12.2515 4.87546 
29.928 -12.1886 4.83786 28.1991 -11.7745 4.17285 27.5566 -10.6431 3.20559 
28.1161 -10.0779 1.78132 27.9633 -9.81012 1.84017 28.0779 -10.0022 1.79042 
27.9331 -9.71636 1.84337 27.7575 -9.67702 2.01821 27.8361 -9.54047 1.90527 
27.891 -9.568 1.86008 27.6332 -9.69415 2.26133 27.4658 -10.005 2.83607 
27.489 -9.85881 2.66075 27.5387 -9.77428 2.48106 27.5337 -10.5176 3.09731 
27.419 -10.4613 3.41131 27.3628 -10.1284 3.36082 27.4064 -10.0193 3.11368 
30.5231 -10.7865 2.07767 30.5909 -10.7566 2.11379 30.6805 -10.729 2.14899 
30.7291 -11.5461 3.58857 30.7064 -11.6421 3.90548 30.5312 -11.7705 4.0308 
30.4019 -11.9074 4.3131 30.9818 -11.1522 2.97394 31.0165 -11.2365 3.22727 
30.9484 -11.3459 3.39496 30.8294 -11.4422 3.43413 31.2313 -10.6862 2.69913 
31.1242 -10.953 2.86992 30.9874 -10.7526 2.42264 30.9342 -10.6279 2.29375 
30.7784 -10.6978 2.20095 27.9013 -11.5926 4.1634 27.6774 -11.4525 4.24749 
27.478 -11.2319 4.2581 27.3193 -10.9105 4.15489 27.2737 -10.5474 3.90401 
29.2276 -12.2505 4.82947 28.9138 -12.1976 4.75725 28.6318 -12.124 4.71644 
28.3605 -11.9656 4.51499 30.2784 -12.0178 4.50305 30.1915 -12.0969 4.68502 
29.3224 -12.3258 5.24019 29.7313 -12.3108 5.36194 30.2364 -12.1526 4.9862 
30.1217 -12.2366 5.32563 28.0022 -11.7745 4.46255 27.7171 -9.41933 2.08561 
27.8229 -9.32055 1.94308 27.8755 -9.48303 1.87641 27.8655 -9.34869 1.90133 
27.5987 -9.39085 2.38599 27.5491 -9.61704 2.42818 27.4486 -9.86692 2.80971 
27.4347 -9.81176 2.95267 27.4653 -9.72653 2.759 27.5091 -9.62926 2.58426 
27.2659 -10.2043 3.72171 27.2994 -9.89501 3.61696 27.3594 -9.94 3.33977 
27.3923 -9.86162 3.194 30.9834 -11.4234 3.81136 30.7645 -11.7565 4.48622 
30.4518 -12.0128 4.77967 31.1749 -11.0677 3.21232 31.0722 -11.2476 3.42658 
31.4442 -10.5116 2.83789 31.4564 -10.6431 3.07486 31.2954 -10.8475 3.03853 
31.1076 -10.5621 2.44925 31.2475 -10.4393 2.58206 31.3659 -10.4819 2.69796 
30.8933 -10.6368 2.26563 30.9239 -10.619 2.28578 30.9405 -10.6082 2.2988 
27.7706 -11.6063 4.41425 27.5698 -11.4727 4.5421 27.3161 -11.2392 4.68594 
27.3052 -11.0908 4.40998 27.1835 -10.9366 4.53755 27.1411 -10.6371 4.33907 
27.1314 -10.2996 4.1466 29.0408 -12.2809 5.07678 28.7139 -12.2189 5.11155 
28.4276 -12.094 4.881 28.1175 -11.9515 4.90672 29.2418 -12.3616 5.54693 
29.0112 -12.3253 5.52129 29.4372 -12.3634 5.56423 29.6206 -12.3615 5.81405 
30.0097 -12.2961 5.96668 30.4195 -12.13 5.25174 30.3071 -12.2115 5.60201 
27.788 -11.7107 4.71073 27.7871 -9.0906 2.07674 27.6862 -9.22442 2.20103 
27.8572 -9.25347 1.9321 27.8518 -9.11241 1.99548 27.6107 -9.18666 2.50216 
27.7024 -9.00654 2.33011 27.5259 -9.41497 2.77863 27.4337 -9.66398 3.14537 
27.1687 -9.98053 3.99051 27.3753 -9.76704 3.3881 27.358 -9.60407 3.62785 
27.236 -9.64769 3.93967 31.195 -11.1775 3.60421 31.1581 -11.2762 3.80921 
31.3192 -11.2071 4.15376 31.1152 -11.5183 4.55024 31.0394 -11.7268 5.15848 
30.7074 -11.9566 5.15337 31.4334 -10.8764 3.53658 31.6066 -10.3734 3.05668 
31.4873 -10.3515 2.80821 31.6771 -10.5072 3.50616 31.0582 -10.526 2.40298 
31.1131 -10.4854 2.45267 31.1872 -10.4275 2.52325 31.2211 -10.3969 2.56912 
31.3633 -10.3672 2.67755 31.2606 -10.3648 2.61048 27.5392 -11.5766 4.98866 
27.1162 -11.001 4.87867 27.2842 -11.3429 5.08211 27.1934 -11.1895 4.95681 
27.0338 -10.6909 4.72682 27.0231 -10.4001 4.51843 27.0031 -10.0483 4.4897 
28.6586 -12.263 5.70712 28.3895 -12.1402 5.27797 28.1222 -12.0523 5.61608 
27.8531 -11.8466 5.11848 29.2954 -12.3738 5.90189 28.9893 -12.3504 6.09567 
29.5761 -12.3727 6.28534 30.4056 -12.1734 5.95627 30.2817 -12.2158 6.24381 
30.1647 -12.2443 6.59919 29.783 -12.3511 6.73689 30.5784 -12.0885 5.58014 
27.883 -8.84925 2.08082 27.8547 -9.00543 2.02356 27.8027 -8.84714 2.19436 
27.8857 -8.82442 2.09117 27.654 -8.99947 2.60662 27.7906 -8.75752 2.32056 
27.7499 -8.76282 2.49345 27.6278 -9.00627 2.88751 27.5469 -9.24888 3.03469 
27.4881 -9.44521 3.13482 27.4339 -9.54258 3.37741 27.1071 -9.78786 4.20664 
27.435 -9.389 3.58113 27.3539 -9.33265 3.87911 27.2407 -9.39762 4.09491 
27.1367 -9.48856 4.30699 31.3762 -11.4044 5.05514 31.6204 -11.0567 4.81572 
31.6597 -10.8278 4.26573 30.8511 -11.9219 5.53617 31.2393 -11.6148 5.4 
31.1025 -11.7393 5.79442 31.653 -10.6954 3.83113 31.6208 -10.1881 2.95767 
31.7202 -10.1523 3.10896 31.7852 -10.2039 3.31925 31.4175 -10.2692 2.73739 
31.5214 -10.2076 2.8351 31.9424 -10.1252 3.7443 31.8381 -10.4831 4.08258 
31.3316 -10.3106 2.67168 27.7004 -11.7797 5.28753 27.3845 -11.5083 5.33132 
27.5388 -11.6687 5.49431 27.0953 -11.1029 5.27348 26.9567 -10.7333 5.14604 
27.2308 -11.3531 5.46265 26.9245 -10.3734 4.88215 26.8628 -10.0297 5.0548 
26.9418 -9.7966 4.73253 27.0264 -9.73228 4.46336 28.3887 -12.1806 5.65938 
28.4407 -12.2222 6.17754 28.7526 -12.3158 6.26851 27.8625 -11.9405 5.96011 
27.8557 -11.9078 5.47784 28.09 -12.0996 6.51408 29.2632 -12.3846 6.37026 
29.0054 -12.3792 6.69611 29.4111 -12.3957 6.74405 30.7347 -11.9998 5.95788 
30.5514 -12.0753 6.48515 30.3658 -12.1561 6.91404 30.077 -12.2808 7.1259 
29.7722 -12.3762 7.17944 29.5579 -12.4057 7.07047 27.8395 -8.7266 2.25988 
27.8578 -8.73852 2.21038 27.7296 -8.76427 2.74681 27.7229 -8.77291 2.78717 
27.8109 -8.71755 2.34859 27.7819 -8.72278 2.46713 27.7451 -8.74409 2.64359 
27.7636 -8.72573 2.52063 27.5882 -9.07956 3.13766 27.6603 -8.87748 3.09596 
27.6645 -8.86903 3.07359 27.6906 -8.8043 2.93201 27.5131 -9.27597 3.341 
27.4947 -9.14713 3.65715 27.3785 -9.22258 3.92803 27.251 -9.25819 4.20539 
27.3054 -9.2381 4.09088 27.2195 -9.25827 4.29732 27.0139 -9.52064 4.67207 
27.1325 -9.21037 4.59938 27.1299 -9.20883 4.60935 31.3892 -11.4887 5.57441 
31.5233 -11.3387 5.42937 31.6824 -11.1091 5.36622 31.8465 -10.7564 4.90394 
31.7698 -10.9495 5.1069 31.8755 -10.5861 4.54162 31.4052 -11.4478 6.05156 
31.1404 -11.6808 6.39503 30.897 -11.8782 6.30325 31.7165 -9.9732 3.08452 
31.5862 -10.089 2.92786 31.5578 -10.1194 2.88979 31.8119 -10.032 3.23444 
31.9206 -9.96797 3.44745 31.4217 -10.2411 2.74971 31.3952 -10.2622 2.7249 
31.4931 -10.1819 2.82226 32.0354 -10.1395 4.16455 32.0591 -9.79283 3.69556 
32.1909 -9.74094 4.10702 31.9909 -10.3409 4.45301 27.7072 -11.8203 5.64089 
27.3578 -11.5173 5.74888 27.5563 -11.7192 6.20384 27.1146 -11.2037 5.57389 
26.9645 -10.8829 5.42857 26.9916 -10.9604 5.76898 26.8457 -10.382 5.30337 
26.8848 -10.6665 5.51476 27.1684 -11.2912 5.83149 26.7972 -10.1394 5.50958 
26.8276 -9.83647 5.3808 26.9014 -9.67825 5.02823 28.4454 -12.2663 6.77695 
28.6733 -12.3159 6.60087 27.8023 -11.9298 6.44013 27.8385 -11.9833 6.8197 
27.9925 -12.1157 7.16293 28.2555 -12.2294 7.06498 28.7147 -12.3529 6.9367 
[...]
CELL_DATA 2802
FIELD FieldData 2
MaterialIds 1 2802 int
1 1 1 1 1 1 1 1 1 
1 1 1 1 1 1 1 1 1 
1 1 1 1 1 1 1 1 1 
1 1 1 1 1 1 1 1 1 
1 1 1 1 1 1 1 1 1 
1 1 1 1 1 1 1 1 1 
1 1 1 1 1 1 1 1 1 
1 1 1 1 1 1 1 1 1 
1 1 1 1 1 1 1 1 1 
1 1 1 1 1 1 1 1 1 
1 1 1 1 1 1 1 1 1 
1 1 1 1 1 1 1 1 1 
1 1 1 1 1 1 1 1 1 
1 1 1 1 1 1 1 1 1 
1 1 1 1 1 1 1 1 1 
1 1 1 1 1 1 1 1 1 
1 1 1 1 1 1 1 1 1 
1 1 1 1 1 1 1 1 1 
1 1 1 1 1 1 1 1 1 
1 1 1 1 1 1 1 1 1 
1 1 1 1 1 1 1 1 1 
1 1 1 1 1 1 1 1 1 
1 1 1 1 1 1 1 1 1 
1 1 1 1 1 1 1 1 1 
1 1 1 1 1 1 1 1 1 
1 1 1 1 1 1 1 1 1 
1 1 1 1 1 1 1 1 1 
1 1 1 1 1 1 1 1 1 
1 1 1 1 1 1 1 1 1 
1 1 1 1 1 1 1 1 1 
1 1 1 1 1 1 1 1 1 
1 1 1 1 1 1 1 1 1 
1 1 1 1 1 1 1 1 1 
1 1 1 1 1 1 1 1 1 
1 1 1 1 1 1 1 1 1 
1 1 1 1 1 1 1 1 1 
1 1 1 1 1 1 1 1 1 
1 1 1 1 1 1 1 1 1 
1 1 1 1 1 1 1 1 1 
1 1 1 1 1 1 1 1 1 
1 1 1 1 1 1 1 1 1 
1 1 1 1 1 1 1 1 1 
1 1 1 1 1 1 1 1 1 
1 1 1 1 1 1 1 1 1 
1 1 1 1 1 1 1 1 1 
1 1 1 1 1 1 1 1 1 
1 1 1 1 1 1 1 1 1 
1 1 1 1 1 1 1 1 1 
1 1 1 1 1 1 1 1 1 
1 1 1 1 1 1 1 1 1 
1 1 1 1 1 1 1 1 1 
1 1 1 1 1 1 1 1 1 
1 1 1 1 1 1 1 1 1 
1 1 1 1 1 1 1 1 1 
1 1 1 1 1 1 1 1 1 
1 1 1 1 1 1 1 1 1 
1 1 1 1 1 1 1 1 1 
1 1 1 1 1 1 1 1 1 
1 1 1 1 1 1 1 1 1 
1 1 1 1 1 1 1 1 1 
1 1 1 1 1 1 1 1 1 
1 1 1 1 1 1 1 1 1 
1 1 1 1 1 1 1 1 1 
1 1 1 1 1 1 1 1 1 
1 1 1 1 1 1 1 1 1 
1 1 1 1 1 1 1 1 1 
1 1 1 1 1 1 1 1 1 
1 1 1 1 1 1 1 1 1 
1 1 1 1 1 1 1 1 1 
1 1 1 1 1 1 1 1 1 
1 1 1 1 1 1 1 1 1 
1 1 1 1 1 1 1 1 1 
1 1 1 1 1 1 1 1 1 
1 1 1 1 1 1 1 1 1 
1 1 1 1 1 1 1 1 1 
1 1 1 1 1 1 1 1 1 
1 1 1 1 1 1 1 1 1 
1 1 1 1 1 1 1 1 1 
1 1 1 1 1 1 1 1 1 
1 1 1 1 1 1 1 1 1 
1 1 1 1 1 1 1 1 1 
1 1 1 1 1 1 1 1 1 
1 1 1 1 1 1 1 1 1 
1 1 1 1 1 1 1 1 1 
1 1 1 1 1 1 1 1 1 
1 1 1 1 1 1 1 1 1 
1 1 1 1 1 1 1 1 1 
1 1 1 1 1 1 1 1 1 
1 1 1 1 1 1 1 1 1 
1 1 1 1 1 1 1 1 1 
1 1 1 1 1 1 1 1 1 
1 1 1 1 1 1 1 1 1 
1 1 1 1 1 1 1 1 1 
1 1 1 1 1 1 1 1 1 
1 1 1 1 1 1 1 1 1 
1 1 1 1 1 1 1 1 1 
1 1 1 1 1 1 1 1 1 
1 1 1 1 1 1 1 1 1 
1 1 1 1 1 1 1 1 1 
1 1 1 1 1 1 1 1 1 
1 1 1 1 1 1 1 1 1 
1 1 1 1 1 1 1 1 1 
1 1 1 1 1 1 1 1 1 
1 1 1 1 1 1 1 1 1 
1 1 1 1 1 1 1 1 1 
1 1 1 1 1 1 1 1 1 
1 1 1 1 1 1 1 1 1 
1 1 1 1 1 1 1 1 1 
1 1 1 1 1 1 1 1 1 
1 1 1 1 1 1 1 1 1 
1 1 1 1 1 1 1 1 1 
1 1 1 1 1 1 1 1 1 
1 1 1 1 1 1 1 1 1 
1 1 1 1 1 1 1 1 1 
1 1 1 1 1 1 1 1 1 
1 1 1 1 1 1 1 1 1 
1 1 1 1 1 1 1 1 1 
1 1 1 1 1 1 1 1 1 
1 1 1 1 1 1 1 1 1 
1 1 1 1 1 1 1 1 1 
1 1 1 1 1 1 1 1 1 
1 1 1 1 1 1 1 1 1 
1 1 1 1 1 1 1 1 1 
1 1 1 1 1 1 1 1 1 
1 1 1 1 1 1 1 1 1 
1 1 1 1 1 1 1 1 1 
1 1 1 1 1 1 1 1 1 
1 1 1 1 1 1 1 1 1 
1 1 1 1 1 1 1 1 1 
1 1 1 1 1 1 1 1 1 
1 1 1 1 1 1 1 1 1 
1 1 1 1 1 1 1 1 1 
1 1 1 1 1 1 1 1 1 
1 1 1 1 1 1 1 1 1 
1 1 1 1 1 1 1 1 1 
1 1 1 1 1 1 1 1 1 
1 1 1 1 1 1 1 1 1 
1 1 1 1 1 1 1 1 1 
1 1 1 1 1 1 1 1 1 
1 1 1 1 1 1 1 1 1 
1 1 1 1 1 1 1 1 1 
1 1 1 1 1 1 1 1 1 
1 1 1 1 1 1 1 1 1 
1 1 1 1 1 1 1 1 1 
1 1 1 1 1 1 1 1 1 
1 1 1 1 1 1 1 1 1 
1 1 1 1 1 1 1 1 1 
1 1 1 1 1 1 1 1 1 
1 1 1 1 1 1 1 1 1 
1 1 1 1 1 1 1 1 1 
1 1 1 1 1 1 1 1 1 
1 1 1 1 1 1 1 1 1 
1 1 1 1 1 1 1 1 1 
1 1 1 1 1 1 1 1 1 
1 1 1 1 1 1 1 1 1 
1 1 1 1 1 1 1 1 1 
1 1 1 1 1 1 1 1 1 
1 1 1 1 1 1 1 1 1 
1 1 1 1 1 1 1 1 1 
1 1 1 1 1 1 1 1 1 
1 1 1 1 1 1 1 1 1 
1 1 1 1 1 1 1 1 1 
1 1 1 1 1 1 1 1 1 
1 1 1 1 1 1 1 1 1 
1 1 1 1 1 1 1 1 1 
1 1 1 1 1 1 1 1 1 
1 1 1 1 1 1 1 1 1 
1 1 1 1 1 1 1 1 1 
1 1 1 1 1 1 1 1 1 
1 1 1 1 1 1 1 1 1 
1 1 1 1 1 1 1 1 1 
1 1 1 1 1 1 1 1 1 
1 1 1 1 1 1 1 1 1 
1 1 1 1 1 1 1 1 1 
1 1 1 1 1 1 1 1 1 
1 1 1 1 1 1 1 1 1 
1 1 1 1 1 1 1 1 1 
1 1 1 1 1 1 1 1 1 
1 1 1 1 1 1 1 1 1 
1 1 1 1 1 1 1 1 1 
1 1 1 1 1 1 1 1 1 
1 1 1 1 1 1 1 1 1 
1 1 1 1 1 1 1 1 1 
1 1 1 1 1 1 1 1 1 
1 1 1 1 1 1 1 1 1 
1 1 1 1 1 1 1 1 1 
1 1 1 1 1 1 1 1 1 
1 1 1 1 1 1 1 1 1 
1 1 1 1 1 1 1 1 1 
1 1 1 1 1 1 1 1 1 
1 1 1 1 1 1 1 1 1 
1 1 1 1 1 1 1 1 1 
1 1 1 1 1 1 1 1 1 
1 1 1 1 1 1 1 1 1 
1 1 1 1 1 1 1 1 1 
1 1 1 1 1 1 1 1 1 
1 1 1 1 1 1 1 1 1 
1 1 1 1 1 1 1 1 1 
1 1 1 1 1 1 1 1 1 
1 1 1 1 1 1 1 1 1 
1 1 1 1 1 1 1 1 1 
1 1 1 1 1 1 1 1 1 
1 1 1 1 1 1 1 1 1 
1 1 1 1 1 1 1 1 1 
1 1 1 1 1 1 1 1 1 
1 1 1 1 1 1 1 1 1 
1 1 1 1 1 1 1 1 1 
1 1 1 1 1 1 1 1 1 
1 1 1 1 1 1 1 1 1 
1 1 1 1 1 1 1 1 1 
1 1 1 1 1 1 1 1 1 
1 1 1 1 1 1 1 1 1 
1 1 1 1 1 1 1 1 1 
1 1 1 1 1 1 1 1 1 
1 1 1 1 1 1 1 1 1 
1 1 1 1 1 1 1 1 1 
1 1 1 1 1 1 1 1 1 
1 1 1 1 1 1 1 1 1 
1 1 1 1 1 1 1 1 1 
1 1 1 1 1 1 1 1 1 
1 1 1 1 1 1 1 1 1 
1 1 1 1 1 1 1 1 1 
1 1 1 1 1 1 1 1 1 
1 1 1 1 1 1 1 1 1 
1 1 1 1 1 1 1 1 1 
1 1 1 1 1 1 1 1 1 
1 1 1 1 1 1 1 1 1 
1 1 1 1 1 1 1 1 1 
1 1 1 1 1 1 1 1 1 
1 1 1 1 1 1 1 1 1 
1 1 1 1 1 1 1 1 1 
1 1 1 1 1 1 1 1 1 
1 1 1 1 1 1 1 1 1 
1 1 1 1 1 1 1 1 1 
1 1 1 1 1 1 1 1 1 
1 1 1 1 1 1 1 1 1 
1 1 1 1 1 1 1 1 1 
1 1 1 1 1 1 1 1 1 
1 1 1 1 1 1 1 1 1 
1 1 1 1 1 1 1 1 1 
1 1 1 1 1 1 1 1 1 
1 1 1 1 1 1 1 1 1 
1 1 1 1 1 1 1 1 1 
1 1 1 1 1 1 1 1 1 
1 1 1 1 1 1 1 1 1 
1 1 1 1 1 1 1 1 1 
1 1 1 1 1 1 1 1 1 
1 1 1 1 1 1 1 1 1 
1 1 1 1 1 1 1 1 1 
1 1 1 1 1 1 1 1 1 
1 1 1 1 1 1 1 1 1 
1 1 1 1 1 1 1 1 1 
1 1 1 1 1 1 1 1 1 
1 1 1 1 1 1 1 1 1 
1 1 1 1 1 1 1 1 1 
1 1 1 1 1 1 1 1 1 
1 1 1 1 1 1 1 1 1 
1 1 1 1 1 1 1 1 1 
1 1 1 1 1 1 1 1 1 
1 1 1 1 1 1 1 1 1 
1 1 1 1 1 1 1 1 1 
1 1 1 1 1 1 1 1 1 
1 1 1 1 1 1 1 1 1 
1 1 1 1 1 1 1 1 1 
1 1 1 1 1 1 1 1 1 
1 1 1 1 1 1 1 1 1 
1 1 1 1 1 1 1 1 1 
1 1 1 1 1 1 1 1 1 
1 1 1 1 1 1 1 1 1 
1 1 1 1 1 1 1 1 1 
1 1 1 1 1 1 1 1 1 
1 1 1 1 1 1 1 1 1 
1 1 1 1 1 1 1 1 1 
1 1 1 1 1 1 1 1 1 
1 1 1 1 1 1 1 1 1 
1 1 1 1 1 1 1 1 1 
1 1 1 1 1 1 1 1 1 
1 1 1 1 1 1 1 1 1 
1 1 1 1 1 1 1 1 1 
1 1 1 1 1 1 1 1 1 
1 1 1 1 1 1 1 1 1 
1 1 1 1 1 1 1 1 1 
1 1 1 1 1 1 1 1 1 
1 1 1 1 1 1 1 1 1 
1 1 1 1 1 1 1 1 1 
1 1 1 1 1 1 1 1 1 
1 1 1 1 1 1 1 1 1 
1 1 1 1 1 1 1 1 1 
1 1 1 1 1 1 1 1 1 
1 1 1 1 1 1 1 1 1 
1 1 1 1 1 1 1 1 1 
1 1 1 1 1 1 1 1 1 
1 1 1 1 1 1 1 1 1 
1 1 1 1 1 1 1 1 1 
1 1 1 1 1 1 1 1 1 
1 1 1 1 1 1 1 1 1 
1 1 1 1 1 1 1 1 1 
1 1 1 1 1 1 1 1 1 
1 1 1 1 1 1 1 1 1 
1 1 1 1 1 1 1 1 1 
1 1 1 1 1 1 1 1 1 
1 1 1 1 1 1 1 1 1 
1 1 1 1 1 1 1 1 1 
1 1 1 1 1 1 1 1 1 
1 1 1 1 1 1 1 1 1 
1 1 1 1 1 1 1 1 1 
1 1 1 1 1 1 1 1 1 
1 1 1 1 1 1 1 1 1 
1 1 1 1 1 1 1 1 1 
1 1 1 1 1 1 1 1 1 
1 1 1 1 1 1 1 1 1 
1 1 1 
GroupIds 1 2802 float
0 0 0 0 0 0 0 0 0 
0 0 0 0 0 0 0 0 0 
0 0 0 0 0 0 0 0 0 
0 0 0 0 0 0 0 0 0 
0 0 0 0 0 0 0 0 0 
0 0 0 0 0 0 0 0 0 
0 0 0 0 0 0 0 0 0 
0 0 0 0 0 0 0 0 0 
0 0 0 0 0 0 0 0 0 
0 0 0 0 0 0 0 0 0 
0 0 0 0 0 0 0 0 0 
0 0 0 0 0 0 0 0 0 
0 0 0 0 0 0 0 0 0 
0 0 0 0 0 0 0 0 0 
0 0 0 0 0 0 0 0 0 
0 0 0 0 0 0 0 0 0 
0 0 0 0 0 0 0 0 0 
0 0 0 0 0 0 0 0 0 
0 0 0 0 0 0 0 0 0 
0 0 0 0 0 0 0 0 0 
0 0 0 0 0 0 0 0 0 
0 0 0 0 0 0 0 0 0 
0 0 0 0 0 0 0 0 0 
0 0 0 0 0 0 0 0 0 
0 0 0 0 0 0 0 0 0 
0 0 0 0 0 0 0 0 0 
0 0 0 0 0 0 0 0 0 
0 0 0 0 0 0 0 0 0 
0 0 0 0 0 0 0 0 0 
0 0 0 0 0 0 0 0 0 
0 0 0 0 0 0 0 0 0 
0 0 0 0 0 0 0 0 0 
0 0 0 0 0 0 0 0 0 
0 0 0 0 0 0 0 0 0 
0 0 0 0 0 0 0 0 0 
0 0 0 0 0 0 0 0 0 
0 0 0 0 0 0 0 0 0 
0 0 0 0 0 0 0 0 0 
0 0 0 0 0 0 0 0 0 
0 0 0 0 0 0 0 0 0 
0 0 0 0 0 0 0 0 0 
0 0 0 0 0 0 0 0 0 
0 0 0 0 0 0 0 0 0 
0 0 0 0 0 0 0 0 0 
0 0 0 0 0 0 0 0 0 
0 0 0 0 0 0 0 0 0 
0 0 0 0 0 0 0 0 0 
0 0 0 0 0 0 0 0 0 
0 0 0 0 0 0 0 0 0 
0 0 0 0 0 0 0 0 0 
0 0 0 0 0 0 0 0 0 
0 0 0 0 0 0 0 0 0 
0 0 0 0 0 0 0 0 0 
0 0 0 0 0 0 0 0 0 
0 0 0 0 0 0 0 0 0 
0 0 0 0 0 0 0 0 0 
0 0 0 0 0 0 0 0 0 
0 0 0 0 0 0 0 0 0 
0 0 0 0 0 0 0 0 0 
0 0 0 0 0 0 0 0 0 
0 0 0 0 0 0 0 0 0 
0 0 0 0 0 0 0 0 0 
0 0 0 0 0 0 0 0 0 
0 0 0 0 0 0 0 0 0 
0 0 0 0 0 0 0 0 0 
0 0 0 0 0 0 0 0 0 
0 0 0 0 0 0 0 0 0 
0 0 0 0 0 0 0 0 0 
0 0 0 0 0 0 0 0 0 
0 0 0 0 0 0 0 0 0 
0 0 0 0 0 0 0 0 0 
0 0 0 0 0 0 0 0 0 
0 0 0 0 0 0 0 0 0 
0 0 0 0 0 0 0 0 0 
0 0 0 0 0 0 0 0 0 
0 0 0 0 0 0 0 0 0 
0 0 0 0 0 0 0 0 0 
0 0 0 0 0 0 0 0 0 
0 0 0 0 0 0 0 0 0 
0 0 0 0 0 0 0 0 0 
0 0 0 0 0 0 0 0 0 
0 0 0 0 0 0 0 0 0 
0 0 0 0 0 0 0 0 0 
0 0 0 0 0 0 0 0 0 
0 0 0 0 0 0 0 0 0 
0 0 0 0 0 0 0 0 0 
0 0 0 0 0 0 0 0 0 
0 0 0 0 0 0 0 0 0 
0 0 0 0 0 0 0 0 0 
0 0 0 0 0 0 0 0 0 
0 0 0 0 0 0 0 0 0 
0 0 0 0 0 0 0 0 0 
0 0 0 0 0 0 0 0 0 
0 0 0 0 0 0 0 0 0 
0 0 0 0 0 0 0 0 0 
0 0 0 0 0 0 0 0 0 
0 0 0 0 0 0 0 0 0 
0 0 0 0 0 0 0 0 0 
0 0 0 0 0 0 0 0 0 
0 0 0 0 0 0 0 0 0 
0 0 0 0 0 0 0 0 0 
0 0 0 0 0 0 0 0 0 
0 0 0 0 0 0 0 0 0 
0 0 0 0 0 0 0 0 0 
0 0 0 0 0 0 0 0 0 
0 0 0 0 0 0 0 0 0 
0 0 0 0 0 0 0 0 0 
0 0 0 0 0 0 0 0 0 
0 0 0 0 0 0 0 0 0 
0 0 0 0 0 0 0 0 0 
0 0 0 0 0 0 0 0 0 
0 0 0 0 0 0 0 0 0 
0 0 0 0 0 0 0 0 0 
0 0 0 0 0 0 0 0 0 
0 0 0 0 0 0 0 0 0 
0 0 0 0 0 0 0 0 0 
0 0 0 0 0 0 0 0 0 
0 0 0 0 0 0 0 0 0 
0 0 0 0 0 0 0 0 0 
0 0 0 0 0 0 0 0 0 
0 0 0 0 0 0 0 0 0 
0 0 0 0 0 0 0 0 0 
0 0 0 0 0 0 0 0 0 
0 0 0 0 0 0 0 0 0 
0 0 0 0 0 0 0 0 0 
0 0 0 0 0 0 0 0 0 
0 0 0 0 0 0 0 0 0 
0 0 0 0 0 0 0 0 0 
0 0 0 0 0 0 0 0 0 
0 0 0 0 0 0 0 0 0 
0 0 0 0 0 0 0 0 0 
0 0 0 0 0 0 0 0 0 
0 0 0 0 0 0 0 0 0 
0 0 0 0 0 0 0 0 0 
0 0 0 0 0 0 0 0 0 
0 0 0 0 0 0 0 0 0 
0 0 0 0 0 0 0 0 0 
0 0 0 0 0 0 0 0 0 
0 0 0 0 0 0 0 0 0 
0 0 0 0 0 0 0 0 0 
0 0 0 0 0 0 0 0 0 
0 0 0 0 0 0 0 0 0 
0 0 0 0 0 0 0 0 0 
0 0 0 0 0 0 0 0 0 
0 0 0 0 0 0 0 0 0 
0 0 0 0 0 0 0 0 0 
0 0 0 0 0 0 0 0 0 
0 0 0 0 0 0 0 0 0 
0 0 0 0 0 0 0 0 0 
0 0 0 0 0 0 0 0 0 
0 0 0 0 0 0 0 0 0 
0 0 0 0 0 0 0 0 0 
0 0 0 0 0 0 0 0 0 
0 0 0 0 0 0 0 0 0 
0 0 0 0 0 0 0 0 0 
0 0 0 0 0 0 0 0 0 
0 0 0 0 0 0 0 0 0 
0 0 0 0 0 0 0 0 0 
0 0 0 0 0 0 0 0 0 
0 0 0 0 0 0 0 0 0 
0 0 0 0 0 0 0 0 0 
0 0 0 0 0 0 0 0 0 
0 0 0 0 0 0 0 0 0 
0 0 0 0 0 0 0 0 0 
0 0 0 0 0 0 0 0 0 
0 0 0 0 0 0 0 0 0 
0 0 0 0 0 0 0 0 0 
0 0 0 0 0 0 0 0 0 
0 0 0 0 0 0 0 0 0 
0 0 0 0 0 0 0 0 0 
0 0 0 0 0 0 0 0 0 
0 0 0 0 0 0 0 0 0 
0 0 0 0 0 0 0 0 0 
0 0 0 0 0 0 0 0 0 
0 0 0 0 0 0 0 0 0 
0 0 0 0 0 0 0 0 0 
0 0 0 0 0 0 0 0 0 
0 0 0 0 0 0 0 0 0 
0 0 0 0 0 0 0 0 0 
0 0 0 0 0 0 0 0 0 
0 0 0 0 0 0 0 0 0 
0 0 0 0 0 0 0 0 0 
0 0 0 0 0 0 0 0 0 
0 0 0 0 0 0 0 0 0 
0 0 0 0 0 0 0 0 0 
0 0 0 0 0 0 0 0 0 
0 0 0 0 0 0 0 0 0 
0 0 0 0 0 0 0 0 0 
0 0 0 0 0 0 0 0 0 
0 0 0 0 0 0 0 0 0 
0 0 0 0 0 0 0 0 0 
0 0 0 0 0 0 0 0 0 
0 0 0 0 0 0 0 0 0 
0 0 0 0 0 0 0 0 0 
0 0 0 0 0 0 0 0 0 
0 0 0 0 0 0 0 0 0 
0 0 0 0 0 0 0 0 0 
0 0 0 0 0 0 0 0 0 
0 0 0 0 0 0 0 0 0 
0 0 0 0 0 0 0 0 0 
0 0 0 0 0 0 0 0 0 
0 0 0 0 0 0 0 0 0 
0 0 0 0 0 0 0 0 0 
0 0 0 0 0 0 0 0 0 
0 0 0 0 0 0 0 0 0 
0 0 0 0 0 0 0 0 0 
0 0 0 0 0 0 0 0 0 
0 0 0 0 0 0 0 0 0 
0 0 0 0 0 0 0 0 0 
0 0 0 0 0 0 0 0 0 
0 0 0 0 0 0 0 0 0 
0 0 0 0 0 0 0 0 0 
0 0 0 0 0 0 0 0 0 
0 0 0 0 0 0 0 0 0 
0 0 0 0 0 0 0 0 0 
0 0 0 0 0 0 0 0 0 
0 0 0 0 0 0 0 0 0 
0 0 0 0 0 0 0 0 0 
0 0 0 0 0 0 0 0 0 
0 0 0 0 0 0 0 0 0 
0 0 0 0 0 0 0 0 0 
0 0 0 0 0 0 0 0 0 
0 0 0 0 0 0 0 0 0 
0 0 0 0 0 0 0 0 0 
0 0 0 0 0 0 0 0 0 
0 0 0 0 0 0 0 0 0 
0 0 0 0 0 0 0 0 0 
0 0 0 0 0 0 0 0 0 
0 0 0 0 0 0 0 0 0 
0 0 0 0 0 0 0 0 0 
0 0 0 0 0 0 0 0 0 
0 0 0 0 0 0 0 0 0 
0 0 0 0 0 0 0 0 0 
0 0 0 0 0 0 0 0 0 
0 0 0 0 0 0 0 0 0 
0 0 0 0 0 0 0 0 0 
0 0 0 0 0 0 0 0 0 
0 0 0 0 0 0 0 0 0 
0 0 0 0 0 0 0 0 0 
0 0 0 0 0 0 0 0 0 
0 0 0 0 0 0 0 0 0 
0 0 0 0 0 0 0 0 0 
0 0 0 0 0 0 0 0 0 
0 0 0 0 0 0 0 0 0 
0 0 0 0 0 0 0 0 0 
0 0 0 0 0 0 0 0 0 
0 0 0 0 0 0 0 0 0 
0 0 0 0 0 0 0 0 0 
0 0 0 0 0 0 0 0 0 
0 0 0 0 0 0 0 0 0 
0 0 0 0 0 0 0 0 0 
0 0 0 0 0 0 0 0 0 
0 0 0 0 0 0 0 0 0 
0 0 0 0 0 0 0 0 0 
0 0 0 0 0 0 0 0 0 
0 0 0 0 0 0 0 0 0 
0 0 0 0 0 0 0 0 0 
0 0 0 0 0 0 0 0 0 
0 0 0 0 0 0 0 0 0 
0 0 0 0 0 0 0 0 0 
0 0 0 0 0 0 0 0 0 
0 0 0 0 0 0 0 0 0 
0 0 0 0 0 0 0 0 0 
0 0 0 0 0 0 0 0 0 
0 0 0 0 0 0 0 0 0 
0 0 0 0 0 0 0 0 0 
0 0 0 0 0 0 0 0 0 
0 0 0 0 0 0 0 0 0 
0 0 0 0 0 0 0 0 0 
0 0 0 0 0 0 0 0 0 
0 0 0 0 0 0 0 0 0 
0 0 0 0 0 0 0 0 0 
0 0 0 0 0 0 0 0 0 
0 0 0 0 0 0 0 0 0 
0 0 0 0 0 0 0 0 0 
0 0 0 0 0 0 0 0 0 
0 0 0 0 0 0 0 0 0 
0 0 0 0 0 0 0 0 0 
0 0 0 0 0 0 0 0 0 
0 0 0 0 0 0 0 0 0 
0 0 0 0 0 0 0 0 0 
0 0 0 0 0 0 0 0 0 
0 0 0 0 0 0 0 0 0 
0 0 0 0 0 0 0 0 0 
0 0 0 0 0 0 0 0 0 
0 0 0 0 0 0 0 0 0 
0 0 0 0 0 0 0 0 0 
0 0 0 0 0 0 0 0 0 
0 0 0 0 0 0 0 0 0 
0 0 0 0 0 0 0 0 0 
0 0 0 0 0 0 0 0 0 
0 0 0 0 0 0 0 0 0 
0 0 0 0 0 0 0 0 0 
0 0 0 0 0 0 0 0 0 
0 0 0 0 0 0 0 0 0 
0 0 0 0 0 0 0 0 0 
0 0 0 0 0 0 0 0 0 
0 0 0 0 0 0 0 0 0 
0 0 0 0 0 0 0 0 0 
0 0 0 0 0 0 0 0 0 
0 0 0 0 0 0 0 0 0 
0 0 0 0 0 0 0 0 0 
0 0 0 0 0 0 0 0 0 
0 0 0 0 0 0 0 0 0 
0 0 0 0 0 0 0 0 0 
0 0 0 0 0 0 0 0 0 
0 0 0 0 0 0 0 0 0 
0 0 0 0 0 0 0 0 0 
0 0 0 0 0 0 0 0 0 
0 0 0 0 0 0 0 0 0 
0 0 0 0 0 0 0 0 0 
0 0 0 
POINT_DATA 1611
SCALARS scalars float
LOOKUP_TABLE default
-0.31528 -0.480367 -0.663664 -0.473586 -0.153503 -0.0971236 -0.165586 -0.843345 -0.696718 
-0.380435 -0.938154 -1.10265 -0.810658 -0.40789 -0.129848 -0.0115563 0 1.38778e-17 
6.93889e-18 0 -3.46945e-18 -0.0139693 -0.0857169 -0.998319 -1.27528 -0.934753 -0.693909 
-0.470305 -0.271619 -1.25321 -1.38248 -1.65574 -0.765682 -1.1107 -0.0846279 -0.158527 
-0.312932 -0.686727 -6.93889e-18 -6.93889e-18 0 0 0 0 0 
0 0 -0.10583 -1.3048 -1.49905 -1.61613 -1.0992 -0.689031 -0.324066 
-1.62139 -1.62354 -1.79557 -2.22214 -2.07989 -1.88288 -0.962281 -1.34653 -6.93889e-18 
-6.93889e-18 -1.04083e-17 -0.109497 -0.0596356 3.46945e-18 -0.233101 -0.537577 -0.14235 -0.938959 
-1.13288 -6.93889e-18 6.93889e-18 -0.0797732 -1.6347 -1.74117 -1.02582 -1.36827 -0.7025 
-0.493105 -0.164708 -0.25947 -2.01802 -1.90711 -2.08375 -2.07254 -2.6889 -2.46969 
-2.20118 -2.73885 -2.37048 -1.53926 -3.46945e-18 -6.93889e-18 3.46945e-18 -3.46945e-18 -0.0630072 
-0.0789616 -0.371071 -0.803916 -3.46945e-18 -1.31491 -1.26289 -1.41785 0 6.93889e-18 
-0.0460448 -2.05576 -1.72629 -2.092 -0.839914 -1.12656 -1.37311 -0.492329 -0.25259 
-0.106131 -2.40811 -1.62341 -2.12763 -1.82372 -1.57578 -2.99072 -2.89855 -2.98795 
-2.7103 -2.56608 -3.2899 -3.15371 -2.66689 -1.59014 0 0 6.93889e-18 
0 -0.224351 -0.0639858 0 -0.488405 -1.13686 -0.935173 -0.737642 -1.49038 
-1.34035 -1.05261 -1.05914 0 0 -6.93889e-18 -1.5979 -1.90088 -2.11543 
-2.44655 -0.850355 -1.08297 -1.28633 -1.39789 -0.316081 -0.626317 -0.190579 -0.01382 
-3.46945e-18 -2.40569 -2.22343 -1.97745 -1.64483 -1.30068 -3.27974 -3.24269 -3.20876 
-2.92822 -2.69107 -2.90253 -3.51967 -3.50424 -3.04458 -3.17457 -2.62674 -0.233424 
-0.0591642 0 6.93889e-18 -0.517052 -0.646371 -1.05588 -0.946034 -0.948526 -0.797348 
-1.00385 -0.743804 -0.891936 -0.884479 -1.63481 -2.39546 -2.82097 -0.937233 -1.22459 
-0.278474 -0.519399 -0.652849 -0.0639531 -0.0520673 -0.171929 -1.73472e-18 1.73472e-18 0 
-2.40319 -2.25102 -2.01613 -1.83427 -1.69291 -1.37932 -1.04324 -3.43269 -3.19136 
-3.13093 -2.89947 -3.27834 -3.1316 -3.40202 -3.38813 -3.36414 -2.89587 -3.04934 
-2.54736 -0.102789 -0.280145 -6.93889e-18 0 -0.472419 -0.300426 -0.647575 -0.728242 
-0.740094 -0.714842 -0.467607 -0.419068 -1.2862 -1.50583 -1.68057 -2.08499 -2.19972 
-2.58144 -0.999888 -0.306466 -0.139785 -0.694239 0 6.93889e-18 0 -6.93889e-18 
-0.065277 0 -2.42718 -1.81102 -2.15692 -2.01123 -1.48392 -1.17111 -0.827205 
-2.76496 -2.86596 -2.451 -2.59284 -3.10231 -2.76305 -3.11513 -3.0144 -3.19539 
-3.40463 -3.10077 -2.78107 -5.20417e-18 -6.93889e-18 -0.119993 5.20417e-18 -0.268779 -0.0521592 
-0.0492162 -0.214698 -0.393661 -0.533311 -0.514459 -0.54298 -0.286449 -0.122891 -0.148189 
-0.24458 -1.75245 -1.37393 -1.3933 -2.48118 -2.0006 -2.234 -1.05135 -0.107545 
-0.18018 -0.348264 -0.0194237 -0.0388339 -0.543843 -1.03851 0 -2.37482 -2.09074 
-2.10348 -1.82898 -1.5923 -1.86247 -1.20969 -0.903832 -0.627289 -0.514507 -2.61406 
-2.29852 -2.48399 -2.02562 -2.3598 -1.81344 -2.83193 -2.47986 -2.79666 -2.68364 
-3.01038 -3.35437 -3.2391 -2.98138 -2.82611 3.46945e-18 3.46945e-18 -1.38778e-17 6.93889e-18 
-6.93889e-18 0 -3.46945e-18 0 -0.192739 3.46945e-18 3.46945e-18 6.93889e-18 -0.287488 
-0.0401838 2.77556e-17 -1.38778e-17 -6.93889e-18 0 -0.337456 -1.73472e-18 8.67362e-19 -1.83562 
-1.62274 -1.3414 -0.991037 -1.16039 -0.977297 -1.92043 -2.36659 -2.6042 -0.0239759 
3.46945e-18 0 -0.169687 -0.248062 0 0 3.46945e-18 -0.774083 -0.239742 
-0.370761 -0.803058 -2.13433 -1.77046 -1.60354 -1.66471 -1.55672 -1.34689 -1.26135 
-1.34766 -1.52945 -0.992132 -0.728447 -0.553707 -1.97206 -2.24617 -1.63316 -1.41449 
-1.39791 -1.68658 -2.14369 -2.59082 -2.27657 -3.13872 -2.78418 -3.48454 -3.26861 
-3.05063 -2.78469 -0.132624 1.73472e-18 -0.0456186 -0.114352 0 0 0 
-0.198079 9.54098e-18 -1.61223 -1.03383 -1.46414 -1.01448 -0.621009 -0.688812 -1.9159 
-2.20621 -2.49501 1.73472e-18 0 3.46945e-18 -0.0444009 -0.119757 -0.506002 -0.0983331 
6.50521e-18 -3.03577e-18 -0.0649117 -0.246366 -0.118784 -0.00905212 -1.39425 -1.00727 -1.0032 
-1.3167 -1.03598 -0.823319 -1.08998 -1.11461 -1.09887 -0.843326 -0.729327 -0.469153 
-0.437583 -1.91257 -1.02708 -1.58931 -1.23072 -2.50976 -2.10329 -2.34683 -3.13101 
-2.89692 -2.73761 -3.5184 -3.49669 -3.03044 -3.23515 -3.40119 -2.57031 -2.85328 
0 6.93889e-18 -6.93889e-18 0 5.20417e-18 -3.46945e-18 -0.117205 1.04083e-17 -0.767262 
-1.14677 -1.54956 -0.341334 -0.319597 -0.437607 -1.87566 -2.15563 -2.36514 0 
0 1.73472e-18 -1.73472e-18 -0.245738 2.60209e-18 0 5.20417e-18 3.46945e-18 0 
-0.0444079 -0.0856786 -0.0798289 -6.93889e-18 0 0 0 0 0 
-0.662607 -0.615015 -0.683777 -0.53648 -0.776406 -0.575749 -0.387546 -0.463158 -0.65255 
-0.457865 -0.196481 -0.207863 -1.86392 -0.796948 -1.8276 -1.55111 -1.0777 -1.43385 
-2.30011 -2.03357 -3.27799 -2.99384 -2.99832 -2.6748 -3.36011 -3.50233 -3.57969 
-3.06016 -3.06454 -3.29712 -2.50907 -2.73144 -2.98075 -1.38778e-17 2.08167e-17 0 
0 -0.556117 -0.873061 -1.43248 -1.11999 -0.134123 -0.176082 -0.209071 -0.11605 
-0.284035 -2.2373 -2.22054 -1.75419 -2.39851 0 -6.93889e-18 0 -6.93889e-18 
-6.93889e-18 0 -6.93889e-18 -0.488945 -0.271707 -0.371965 -0.399152 -0.30545 -0.197721 
-0.520558 -0.280207 -0.0854223 -0.290981 -0.140103 -0.235403 -0.138364 -0.113717 -1.38778e-17 
1.38778e-17 -1.38778e-17 -6.93889e-18 -0.845254 -0.52555 -1.75145 -2.14439 -2.03674 -1.10454 
-1.32075 -1.58153 -1.93436 -2.43212 -3.51651 -3.28955 -2.93816 -2.6142 -3.12691 
-3.18331 -3.19381 -3.28297 -2.82486 -2.69371 -3.00372 -2.82776 -2.61015 -2.6211 
-0.311021 -0.48478 -0.652726 -0.779958 -1.00294 -1.28647 -1.47932 -0.0509288 1.04083e-17 
3.46945e-18 -6.93889e-18 -0.153485 -1.38778e-17 -0.143933 -2.65273 -2.15531 -2.43204 -1.85033 
-1.49535 -0.0613548 -0.0189956 -0.0790514 -0.226088 -0.184599 -0.0231391 -0.0411515 0 
0 0 0 -3.46945e-18 -1.38778e-17 -6.93889e-18 3.46945e-18 -6.93889e-18 0 
0 -0.739119 -0.916218 -0.517303 -2.32525 -2.23174 -0.99481 -1.25651 -1.49686 
-1.51303 -2.09776 -1.72087 -1.44846 -3.22779 -3.33266 -3.05392 -2.88891 -3.00732 
-3.00366 -3.03475 -2.47473 -2.6262 -2.44093 -2.62277 -2.81783 -2.50115 -2.30207 
-2.42809 -2.39463 -0.381472 -0.146473 -0.246145 -0.516675 -0.854276 -0.763097 -0.63145 
-1.00089 -1.20384 3.46945e-18 0 -0.0709395 -6.93889e-18 -3.00806 -2.62183 -2.82362 
-2.35026 -2.51723 -2.12261 -2.0387 -1.64519 -1.98662 -1.34043 3.46945e-18 0 
0 0 0 0 -0.488476 -0.0805354 0 0 0 
0 -0.724529 -0.863382 -1.44082 -1.19379 -0.876136 -1.15987 -1.85683 -2.20381 
-1.33235 -1.43399 -0.967755 -2.86517 -2.95172 -3.1855 -3.00952 -3.22516 -2.80256 
-2.09196 -2.05481 -2.32635 -2.2882 -2.53762 -1.93441 -0.355126 -0.444687 -0.0641001 
-0.27673 -0.359967 -0.561984 -0.891451 -0.837535 -0.696488 -0.956556 -1.07506 0 
-6.93889e-18 -3.24782 -3.18706 -2.64624 -3.00489 -2.28036 -1.39862 -1.64637 -1.90792 
-2.25333 -2.08036 -1.21208 -0.658867 -0.351321 -6.93889e-18 -6.93889e-18 -6.93889e-18 1.38778e-17 
-0.78148 -0.474935 -0.33046 -0.570402 -0.365766 -1.47635 -0.993457 -1.01681 -0.538506 
-0.545588 -2.6107 -2.50901 -2.66659 -3.11321 -2.98546 -2.71906 -2.0391 -1.73092 
-1.63413 -1.60025 -2.12396 -1.97528 -0.4362 -0.51417 6.93889e-18 6.93889e-18 -0.127848 
-3.46945e-18 -0.365052 -0.419897 -0.459242 -0.46392 -0.618788 -0.771783 -0.901478 -0.975881 
-1.07127 -0.960051 -0.925381 -2.93604 -2.807 -2.57733 -2.88848 -2.96772 -1.38374 
-1.16555 -1.92063 -1.62266 -2.23909 -2.41911 1.38778e-17 -2.08167e-17 -0.313417 -0.147973 
-0.0777223 -0.110632 -0.0794807 -0.0607284 -6.93889e-18 -0.0772939 -1.24134 -0.93398 -0.668126 
-0.574737 -0.355944 -0.121094 -0.239325 -2.31139 -2.27439 -2.12549 -2.54768 -2.36169 
-2.77147 -2.56662 -2.49069 -1.73178 -1.38787 -1.28338 -1.21309 -1.1856 -1.60235 
-1.61812 -0.536519 -0.0177138 -0.181885 -6.93889e-18 -0.422414 -0.576156 -0.598357 -0.538194 
-0.588639 -0.630834 -0.710873 -0.833095 -0.960846 -0.882163 -0.82279 -2.84243 -2.68902 
-2.70881 -2.50164 -2.62736 -2.8957 -2.94516 -2.82846 -2.68263 -1.24812 -1.24974 
-0.963505 -1.92699 -2.19802 -1.58949 -2.4032 -2.52692 -0.0666954 -0.00153544 -6.93889e-18 