# vtk DataFile Version 4.2
3D Slicer output. SPACE=LPS
ASCII
DATASET POLYDATA
POINTS 1580 float
24.1634 -85.8727 41.678 25.2543 -86.9477 41.7665 25.1438 -87.1803 42.3008 
23.5395 -86.3309 42.6688 23.2738 -85.7536 42.1916 22.2421 -84.5624 41.5808 
23.5721 -84.7731 41.0658 24.4597 -84.8724 40.5747 24.8266 -86.1004 41.3348 
26.1644 -87.6659 41.4583 25.6559 -86.8795 41.1852 26.3721 -87.9569 41.7393 
26.5781 -88.2664 42.4747 25.169 -87.5109 43.0985 22.9913 -86.589 43.7115 
22.6204 -86.2615 43.4398 22.4473 -85.6524 42.6243 21.4636 -85.0841 42.4624 
21.0238 -84.1713 41.7777 21.4484 -83.4654 41.138 23.647 -84.2751 40.6716 
24.2405 -83.9751 40.1848 25.2836 -83.9075 39.4854 25.964 -85.084 39.4424 
25.38 -85.3763 40.2507 25.344 -86.1987 40.9669 26.9343 -88.3879 40.8747 
25.9796 -86.7308 40.4747 26.5383 -87.3263 39.9817 26.888 -88.4354 41.4747 
27.051 -88.6705 42.4483 26.4884 -88.3752 43.3497 25.4902 -87.9844 44.5247 
24.101 -87.4167 44.6021 23.0741 -86.9911 44.5736 22.0512 -86.3917 44.139 
21.2138 -85.9158 43.8332 21.0412 -85.1671 42.781 20.2708 -84.392 42.255 
20.8323 -83.8664 41.624 22.1512 -82.0763 40.2783 21.2406 -82.4047 40.7208 
23.1012 -83.5263 40.4818 19.9512 -83.0653 41.3327 20.3512 -82.2763 40.8728 
23.4559 -82.965 40.1379 24.6512 -83.626 39.7579 24.9445 -83.2626 39.5198 
25.7937 -83.2839 38.9172 26.1716 -84.4344 38.9499 26.0531 -86.0777 39.8768 
26.5501 -85.0763 38.674 27.1859 -88.5285 39.7063 27.2572 -88.8356 40.0594 
27.0095 -88.0683 39.5991 27.5202 -89.2582 40.8747 26.4473 -86.0763 39.2747 
26.8547 -87.0593 38.7301 26.8884 -87.3046 38.8171 28.1181 -89.8315 42.3247 
27.9561 -89.372 43.0949 27.418 -88.9481 43.2747 27.5336 -88.9839 43.9997 
26.3933 -88.4175 44.5747 24.873 -87.8485 45.5247 23.7484 -87.4008 45.0705 
22.5554 -86.93 45.1039 21.371 -86.4767 45.0195 20.4518 -85.6291 43.8266 
20.1107 -84.9911 42.9605 19.8389 -83.6269 41.7501 19.475 -84.3819 42.5696 
22.8612 -81.3763 39.9537 23.0713 -82.1763 40.0251 21.8012 -81.6297 40.3069 
21.0512 -81.7789 40.5367 19.575 -82.77 41.3899 19.7512 -82.1763 41.0762 
20.2512 -81.3763 40.6613 19.3512 -81.1263 40.8391 19.8601 -81.1376 40.7564 
24.2057 -82.1763 39.5667 25.0536 -82.1357 39.2169 26.2576 -82.5763 38.5177 
26.6797 -83.6763 38.134 25.9011 -82.2763 38.7856 26.8283 -84.5033 38.0223 
26.8835 -85.1614 38.025 26.8522 -85.4323 38.168 26.9504 -84.7887 37.8281 
27.1398 -88.278 39.4323 27.4865 -89.1995 40.6558 26.9779 -87.6255 39.021 
27.5365 -89.3025 40.8154 27.5578 -89.3276 40.8527 27.6459 -89.4273 40.9804 
26.8464 -85.7609 38.306 26.804 -86.518 38.5679 28.4506 -90.2192 42.4645 
28.307 -90.208 41.982 27.9766 -89.2841 44.7747 28.7424 -89.9831 44.465 
27.2693 -88.8045 44.9673 26.1012 -88.2935 45.5247 23.4234 -87.4452 46.5497 
25.0216 -87.9466 46.412 22.8285 -87.211 46.2467 21.4109 -86.7142 45.8284 
19.732 -85.7763 44.3644 19.1512 -85.4238 44.0793 19.7512 -85.2029 43.3375 
19.1157 -83.5804 41.9465 17.7012 -83.2956 42.0142 17.8694 -84.3636 42.994 
19.242 -85.1617 43.5941 21.5012 -80.9626 40.3357 23.0125 -80.7763 39.9294 
23.6511 -80.8852 39.7445 18.5429 -83.0732 41.7376 17.6673 -82.3542 41.437 
18.3012 -81.5025 41.047 21.0512 -80.3763 40.5968 19.3512 -80.3263 40.7818 
18.5512 -80.6763 40.8446 24.3512 -81.1763 39.4498 25.0647 -81.1763 39.2323 
27.1512 -82.0763 38.0042 27.6156 -82.2089 37.5696 27.6065 -82.6563 37.3224 
27.3276 -83.6763 37.3121 26.4304 -81.5763 38.5926 27.3203 -83.7184 37.3161 
27.0183 -84.5157 37.6829 28.4586 -90.327 42.2018 28.6741 -90.5119 42.5882 
28.9758 -90.3777 43.9516 29.3893 -90.3142 45.1747 28.5956 -89.5439 45.6747 
27.3337 -88.7804 46.1741 26.4145 -88.3849 47.5444 26.8512 -88.5188 47.3673 
22.6012 -87.2569 47.6747 23.7262 -87.5205 47.4516 22.0967 -87.0616 46.6622 
24.4733 -87.7068 47.6997 19.9464 -86.1908 45.4242 19.3435 -86.3593 46.8788 
21.0233 -86.7506 46.8407 19.3512 -85.7625 44.8538 18.7681 -85.9637 45.6495 
18.1337 -85.4703 44.6887 18.1982 -85.0707 43.9031 16.8012 -83.6026 42.3521 
16.5012 -83.1263 41.9487 16.7512 -84.0995 42.8476 17.1512 -84.6715 43.6111 
22.5549 -80.3835 40.1747 23.6313 -80.3763 39.9022 24.2512 -80.5499 39.7095 
16.4512 -82.0823 41.3179 16.7512 -81.4763 41.0544 17.3051 -81.1177 40.9733 
20.7609 -79.7659 40.5592 21.5387 -79.6605 40.3623 19.3512 -79.2161 40.5674 
18.0512 -79.9763 40.876 17.1512 -80.6763 40.9673 24.6341 -80.1763 39.6314 
26.4545 -81.1545 38.7497 25.4694 -80.1763 39.3582 27.2567 -81.1857 38.3416 
28.2102 -81.3763 37.6289 27.985 -82.3854 37.0127 28.0981 -82.259 36.9966 
27.9126 -82.5084 37.0308 27.6089 -83.0012 37.1101 27.3393 -83.6642 37.2941 
27.3277 -83.695 37.3047 29.1181 -90.8458 43.3938 29.9452 -90.9417 45.0945 
29.9512 -91.1763 44.8016 29.4117 -91.0004 43.8685 29.2774 -90.9177 43.6229 
29.741 -90.5863 45.4847 29.3639 -90.0989 46.4997 28.4489 -89.4768 46.5247 
27.8947 -88.972 47.6768 26.8482 -88.3146 48.9747 25.8918 -88.1066 48.2247 
21.6875 -86.9547 48.1524 23.4731 -87.442 48.246 21.5426 -86.9297 47.4247 
24.2261 -87.5545 48.6072 20.2185 -86.5539 48.3655 17.1887 -86.1 47.2872 
20.0007 -86.5388 47.2837 17.7302 -85.7974 45.567 17.1461 -86.0152 46.6247 
16.8137 -85.3899 44.8351 15.1512 -83.426 42.0961 15.1012 -83.7668 42.3941 
14.7012 -82.5611 41.4192 15.6012 -81.8763 41.1312 14.7512 -84.3493 43.0828 
15.7512 -84.5272 43.4057 16.0512 -85.389 44.8984 15.4512 -84.7924 43.77 
22.4512 -79.3763 40.0511 23.8512 -79.5831 39.7378 15.6512 -81.5763 41.0233 
16.4012 -80.9763 40.947 20.37 -78.9598 40.3747 21.0512 -78.5763 40.2837 
21.5353 -78.9763 40.1916 18.3512 -79.1763 40.6863 18.6512 -78.9763 40.6987 
19.4424 -78.5903 40.6036 19.3763 -78.6024 40.6132 19.8512 -78.5763 40.4762 
17.6241 -79.9763 40.9789 17.6012 -79.1763 40.8698 17.1512 -79.9763 41.006 
24.7509 -79.5513 39.4773 26.2563 -80.3619 39.0224 26.207 -79.7263 38.9713 
25.8197 -79.3245 39.1659 27.7512 -80.7763 38.1711 28.436 -81.9286 36.8747 
28.76 -81.4775 36.8747 28.4516 -80.5763 37.4732 28.8642 -80.5842 37.0747 
30.0369 -91.2244 44.8452 30.1596 -91.1956 45.0324 30.3546 -90.7735 45.5537 
30.2705 -91.0024 45.3523 29.9802 -91.2236 44.7487 29.9515 -91.224 44.7192 
29.9498 -90.7726 46.3108 30.1235 -90.8028 47.0772 28.9917 -89.63 47.9439 
30.1378 -90.5923 47.4577 28.6511 -89.2678 48.2747 28.1284 -88.8107 49.0621 
26.1804 -87.9407 49.6593 26.5621 -87.7222 50.4747 22.2512 -86.9935 48.9698 
20.254 -86.5164 49.0493 21.7512 -86.8587 49.0997 24.2357 -87.3602 49.6191 
19.3857 -86.3094 49.2934 17.8488 -86.1276 48.9975 16.5762 -86.1034 47.7747 
16.3129 -85.7906 45.9251 15.2512 -85.8402 46.2747 14.8475 -83.5834 42.1671 
14.2512 -83.8666 42.4926 13.7512 -83.0783 41.6725 13.8512 -81.9763 41.0924 
15.1512 -81.6244 41.1097 15.2262 -85.1957 44.5387 14.0467 -84.8425 43.8693 
13.6028 -84.4866 43.1255 23.2512 -78.7763 39.8615 22.4512 -78.7763 40.0965 
24.1097 -78.9763 39.6731 15.0512 -81.1763 40.9956 15.4512 -80.7785 40.9893 
16.0512 -80.1763 41.1121 21.275 -78.5353 40.2928 20.1 -78.511 40.4885 
20.9183 -78.5066 40.3608 21.1195 -78.5203 40.3287 18.0561 -79.0287 40.8329 
17.8 -79.0626 40.8785 18.1942 -78.9763 40.8203 18.4431 -78.8695 40.8685 
19.5424 -78.5689 40.5743 19.8163 -78.5147 40.5187 17.3757 -79.1088 40.9705 
17.3022 -79.1301 40.9752 17.4633 -79.0646 40.9208 16.4512 -79.5763 41.0298 
16.9631 -79.2177 40.9945 25.4194 -78.9763 39.2871 27.3406 -79.7377 38.3701 
27.7108 -80.3763 38.1416 27.0069 -78.9868 38.8351 26.3211 -78.7745 39.1203 
28.7548 -81.5725 36.7556 29.0124 -80.9965 36.6964 28.8518 -81.4511 36.7514 
28.5512 -79.9611 37.5747 28.8354 -80.3763 37.2131 29.6122 -80.1865 36.5763 
29.3101 -80.5431 36.6046 29.4691 -80.014 36.8909 30.4753 -90.9462 45.5666 
30.467 -90.8484 45.7944 30.3359 -90.8573 46.095 30.3512 -91.0181 46.7747 
30.5511 -90.8836 47.5747 29.2125 -89.2794 49.4827 29.9747 -90.0887 48.6976 
30.7079 -90.591 48.4211 28.5245 -88.2128 51.0742 25.3043 -87.4266 50.4334 
26.4762 -87.1858 51.623 27.3221 -87.2357 52.0789 22.6887 -86.8836 49.8247 
21.2848 -86.5336 50.0183 22.6425 -86.686 50.4392 18.6614 -86.1213 49.5184 
19.2375 -85.8193 50.9028 15.5205 -85.9948 48.8723 17.3012 -86.0264 49.5747 
14.9489 -85.9939 48.3699 14.3637 -85.913 46.9247 14.2762 -85.757 46.0634 
13.3963 -83.8897 42.2614 12.2731 -83.4873 41.5691 12.7733 -82.4225 41.1392 
13.2586 -81.4886 40.9619 13.8613 -85.3708 44.9794 12.3512 -85.3468 44.2625 
12.2986 -85.0835 43.6631 11.4669 -84.5246 42.3284 12.8512 -84.1212 42.4004 
23.2535 -78.727 39.8858 22.702 -78.711 40.056 22.4034 -78.6979 40.1413 
23.604 -78.7315 39.8474 24.6098 -78.7118 39.6208 13.6969 -80.9415 40.9822 
14.7512 -80.5763 41.1266 15.0154 -79.6954 41.1315 15.188 -79.6584 41.1294 
15.6512 -79.6441 41.1725 16.5692 -79.3541 41.0992 15.9042 -79.4986 41.1803 
25.2046 -78.6858 39.4548 27.8456 -78.9617 38.5639 27.8436 -79.7668 38.2112 
26.3861 -78.6922 39.1661 26.8749 -78.757 39.0244 25.9046 -78.6774 39.2693 
28.4433 -79.1706 38.2183 29.1638 -79.8765 37.2848 29.928 -79.8573 36.5586 
30.4633 -79.261 36.6763 30.0299 -79.1919 37.2363 30.0915 -79.0165 37.3589 
30.4174 -90.9804 46.5096 30.9865 -90.8806 47.6823 30.5043 -90.9985 46.7236 
31.0227 -90.8675 47.7633 30.274 -89.976 49.3971 30.6819 -89.9695 49.791 
29.2092 -88.515 51.1188 31.4511 -90.6736 48.6747 30.9512 -90.3998 49.0565 
31.0432 -90.8602 47.7897 28.3161 -87.7341 51.7893 28.7011 -87.5081 52.3218 
23.2512 -86.6797 50.7747 25.228 -87.1236 50.9825 26.0451 -86.6745 52.2747 
25.5356 -86.722 51.8614 27.5955 -86.8812 52.6661 21.3209 -86.2312 50.8998 
21.7334 -86.056 51.3806 18.3984 -85.7263 50.8252 19.1976 -85.4938 51.5623 
14.7199 -85.7492 49.6741 17.2512 -85.8013 50.4168 12.9512 -85.8578 48.4747 
12.8012 -85.8818 47.1247 12.8887 -85.8456 46.0997 13.5012 -85.7155 45.8794 
11.8025 -83.7042 41.5312 11.7679 -83.5015 41.3694 12.2512 -82.2947 41.0146 
12.6512 -81.4969 40.826 12.4688 -80.7763 40.5975 13.1012 -85.6634 45.3747 
11.3167 -85.8685 45.1497 12.4041 -85.8303 45.6504 11.423 -85.0635 43.1331 
10.9607 -85.4914 43.6595 10.2086 -85.1301 42.1623 10.8109 -84.2619 41.7404 
11.111 -83.7994 41.357 10.0298 -85.6736 42.7782 14.1512 -80.2763 41.0516 
[...]
POINT_DATA 1580
SCALARS scalars float
LOOKUP_TABLE default
-4.12777 -3.25052 -3.48143 -5.19875 -5.11357 -5.73222 -4.35396 -3.37577 -3.41767 
-2.118 -2.67191 -1.98049 -2.15378 -3.75078 -6.02508 -6.30349 -6.01245 -6.74719 
-5.81176 -4.94795 -4.20923 -3.59682 -2.49115 -1.56259 -2.40829 -2.81445 -0.921493 
-1.97712 -1.13348 -1.25852 -1.69822 -2.76752 -4.32362 -5.43708 -6.28477 -7.03562 
-7.68867 -7.06417 -6.10243 -5.49096 -3.40021 -3.86047 -4.78664 -4.57468 -3.79815 
-4.23926 -3.20413 -3.03355 -2.12464 -1.36651 -1.56813 -0.685853 -2.77556e-17 -5.55112e-17 
-0.292451 -0.0730364 -0.875241 5.55112e-17 5.55112e-17 -0.542859 -1.40276 -2.01052 -2.37255 
-3.67313 -5.45719 -5.98523 -6.99576 -7.98893 -7.79468 -6.8177 -5.15725 -5.95969 
-2.64754 -3.44326 -2.99423 -3.24249 -4.20999 -3.63704 -2.87995 -2.50649 -2.60985 
-3.47152 -3.35012 -1.95056 -0.915228 -2.48054 -0.340908 -5.55112e-17 -5.55112e-17 0 
0 0 -2.77556e-17 0 0 0 -5.55112e-17 -1.38778e-17 -0.241551 
5.55112e-17 -2.37562 -1.35847 -3.1606 -4.4567 -7.20569 -5.83577 -7.4485 -8.33693 
-7.92964 -7.32306 -7.03015 -4.9527 -4.26997 -5.57969 -6.93 -2.36987 -2.04337 
-2.15656 -4.26293 -3.26931 -2.6063 -1.859 -1.72385 -1.87104 -2.48613 -2.52672 
-1.3084 -0.689465 -0.319111 -0.015167 -2.35406 0 0 2.77556e-17 -2.77556e-17 
-0.699532 -1.14185 -2.3465 -3.82419 -4.96495 -4.50882 -8.54507 -7.50918 -8.26624 
-6.97959 -8.84369 -9.60186 -9.22719 -8.02316 -8.41339 -7.32902 -6.65011 -4.38661 
-3.76384 -4.98532 -5.88871 -1.67832 -1.64854 -1.84848 -2.65476 -2.13697 -1.94535 
-1.26718 -1.07725 -0.627854 -1.0636 -1.4783 -1.49948 -2.48572 -1.53213 -1.91483 
-0.886195 2.77556e-17 5.55112e-17 2.77556e-17 -2.77556e-17 0 0 5.55112e-17 -0.335649 
-0.0752811 -5.55112e-17 -5.55112e-17 -0.835684 -1.50725 -2.60462 -3.45878 -4.98888 -5.6657 
-9.59593 -8.05732 -9.19486 -7.4231 -10.84 -9.11821 -10.186 -7.94606 -8.6129 
-7.00396 -3.82267 -4.22313 -2.79525 -2.25293 -4.97203 -5.38305 -6.89789 -5.73646 
-0.678731 -0.861905 -1.97302 -1.56727 -0.468639 -0.0836127 -0.399104 -0.37082 -0.247798 
2.77556e-17 -1.04083e-17 -0.0759141 -0.949934 -0.173413 -0.811338 -0.880635 -1.69907 -1.0737 
-0.68054 -1.77263 0 -0.153967 -1.0438 -0.548786 0 0 -0.46099 
0 0 0 -0.6193 -0.518983 -2.28657 -0.714526 -2.85546 -3.78449 
-5.94533 -6.11281 -9.46488 -11.2893 -9.98968 -7.77429 -11.2192 -10.4979 -9.34969 
-7.8539 -7.98599 -3.95485 -4.27608 -3.27342 -2.10873 -1.92094 -6.44014 -5.73463 
-5.08037 -0.0555226 -0.0817103 -0.268807 -1.46899 -1.15767 -0.700437 -1.38778e-17 -6.93889e-18 
0 0 -1.38778e-17 0 1.38778e-17 0 0 0 -5.55112e-17 
-2.77556e-17 -1.38778e-17 -0.227512 -1.38778e-17 -0.332062 -1.04436 -1.62775 -0.270209 -0.115789 
2.77556e-17 5.55112e-17 -1.38778e-17 -1.25285 -0.760169 2.77556e-17 -5.55112e-17 -0.385953 -5.55112e-17 
-2.77556e-17 0 -0.171085 -0.288722 -2.96177 -1.61921 -0.731398 -4.84727 -7.1828 
-7.01767 -6.69206 -9.35015 -10.7588 -9.66727 -11.0792 -12.1473 -9.97495 -10.7702 
-9.55627 -8.43673 -7.74516 -4.20682 -3.20079 -2.49226 -1.57261 -6.77822 -6.00943 
-5.41366 -3.79536 -4.36883 0 0 0 1.38778e-17 -2.77556e-17 -1.06225 
-0.820608 4.16334e-17 1.38778e-17 -0.104783 0 0 0 -0.157457 -1.0122 
0 -2.77556e-17 2.77556e-17 -0.334547 -0.888216 0 0 0 5.55112e-17 
1.38778e-17 1.04083e-17 0 6.93889e-18 -1.87261 -1.88005 -4.30141 -0.383768 -1.04877 
-2.77556e-17 -5.64941 -5.87712 -9.28962 -7.62496 -7.91791 -8.02419 -7.06106 -11.1233 
-11.0272 -11.8314 -11.8937 -10.4315 -11.3092 -9.60403 -8.62813 -7.88608 -7.61193 
-3.00859 -2.78128 -2.32803 -1.52926 -0.793774 -7.28147 -6.32654 -7.33784 -4.62795 
-4.8741 -3.19734 -2.93486 -2.57623 -3.64397 -0.443042 -0.435908 2.77556e-17 0 
0 1.38778e-17 0 0 -1.38778e-17 2.77556e-17 2.77556e-17 2.77556e-17 2.77556e-17 
-0.608664 -1.4349 -2.46584 -4.27763 -0.114068 -2.08167e-17 -5.9781 -4.82839 -10.2821 
-8.69843 -7.98677 -7.13903 -11.5805 -12.1518 -12.078 -11.4407 -10.9988 -11.6104 
-10.9514 -10.6102 -11.1944 -9.5541 -7.93943 -6.85192 -1.5726 -1.79578 -1.46274 
-1.06351 -0.125891 -0.0490178 -6.12189 -5.30019 -4.33944 -2.94739 -2.10406 -1.947 
-1.49312 -3.34937 -2.49549 -0.0815892 0 -2.77556e-17 0 2.77556e-17 -0.518497 
-0.404831 -1.61107 -2.94556 -5.20417e-18 -1.38778e-17 -4.05009 -5.28318 -6.55315 -5.61922 
-9.57809 -10.3377 -11.6531 -9.12343 -8.88355 -7.27588 -12.1169 -11.0966 -10.1452 
-10.1776 -10.1475 -10.314 -10.5671 -10.3874 -11.0617 -10.4782 -10.6132 -8.89542 
-7.36095 -0.723149 -1.11022e-16 -0.017607 0 -0.485771 0 -1.38778e-17 0 
0 0 0 -5.09411 -6.42239 -4.35244 -1.70006 -0.751157 -1.7271 
-0.994009 -3.74055 -2.13047 -2.25349 -0.865065 0 1.38778e-17 0 2.77556e-17 
-2.77556e-17 0 -1.38778e-17 -1.88354 -1.54453 -6.93889e-17 -0.89935 -3.07742 -3.56699 
-4.03615 -4.59024 -6.05456 -12.039 -11.6549 -10.0645 -10.7075 -9.50524 -8.64671 
-9.43698 -10.6477 -5.90802 -7.9873 -10.1911 -9.79412 -9.18839 -9.40447 -9.59468 
-10.1841 -8.66045 -10.723 -10.9878 -9.99617 -10.3412 -7.5434 -2.77556e-17 -0.333368 
-2.77556e-17 0 0 0 -5.55112e-17 -5.55112e-17 -2.77556e-17 2.77556e-17 0 
-5.1443 -4.38508 -6.14507 -0.372531 -2.77556e-17 0 -0.547955 -1.11022e-16 -1.94268 
-1.02153 -0.961517 -0.102703 -1.49252 -1.30191 -2.70651 -4.16334e-17 -0.53409 -0.372517 
-2.57906 -2.76517 -3.28008 -4.54338 -10.4209 -11.7136 -10.6643 -10.7474 -10.2577 
-9.5833 -11.0034 -10.6914 -11.8206 -11.8439 -4.84053 -5.60503 -7.31068 -8.84833 
-9.93402 -9.5382 -8.57437 -8.49877 -8.47149 -8.61214 -8.3532 -8.76495 -8.84025 
-9.0022 -8.45032 -9.63915 -10.8009 -10.8416 -9.80172 -10.7834 -6.64529 0 
-2.77556e-17 0 -4.61554 -5.16772 -3.46758 -5.05674 -5.55112e-17 0 1.38778e-17 
0 -2.14291 -1.33958 -0.790942 -0.132339 0 0 -5.55112e-17 1.38778e-17 
-1.38778e-17 1.38778e-17 -0.37606 -1.0166 -1.87385 1.38778e-17 -2.77556e-17 2.77556e-17 -0.417273 
-2.77556e-17 -0.137829 -0.118411 -1.44105 -1.55826 -3.39562 -2.54024 -9.63305 -9.22564 
-11.5447 -10.056 -12.1378 -9.48285 -9.69855 -10.7343 -11.9979 -12.2218 -5.36815 
-3.8795 -7.08509 -7.91087 -9.22417 -9.05792 -8.04337 -8.11624 -7.65673 -7.66953 
-7.8382 -7.78322 -7.97074 -8.63147 -7.95517 -7.06688 -7.94675 -8.95277 -10.7776 
-9.59366 -9.57303 -8.938 -10.9695 -10.4423 -2.68809 -6.2495 -4.17406 -3.39738 
-1.28626 -0.642754 -0.0992117 -0.112621 0 0 -1.38778e-17 1.9082e-17 -0.442562 
-2.77556e-17 -1.03386 2.77556e-17 1.38778e-17 0 -1.38778e-17 0 0 0 
0 -1.23395 -0.337205 -0.0398865 -2.66706 -8.30995 -9.44226 -10.7463 -11.5446 
-9.58528 -11.3121 -11.9782 -10.4855 -12.0825 -5.04379 -4.1814 -2.83092 -3.39138 
-5.13414 -8.11726 -8.47105 -7.39788 -7.23865 -7.87533 -7.06766 -7.1478 -7.12685 
-6.12577 -6.86327 -6.61015 -7.81216 -8.09339 -9.24708 -10.9372 -9.67751 -8.91738 
-8.51092 -10.0568 -1.64628 -4.9822 -6.0146 -7.35367 -3.49668 2.77556e-17 -5.55112e-17 
-0.558071 0 -1.38778e-17 -1.38778e-17 0 -1.73472e-18 0 0 -1.23974 
-0.652018 -1.68386 1.38778e-17 0 0 0 -6.93889e-18 -1.99005 -8.95108 
-10.9658 -9.49716 -10.3112 -9.04151 -7.90141 -11.7733 -10.7924 -10.2739 -3.23904 
-6.7006 -5.30368 -3.83832 -8.03583 -6.95488 -6.30987 -6.8082 -7.37617 -5.68403 
-6.50203 -6.07573 -5.62435 -5.38084 -6.31028 -7.97473 -7.84119 -10.5932 -9.69057 
-9.92207 -8.94856 -8.14795 -7.58566 -10.782 -2.95186 -1.07331 -3.36584 -7.08814 
-4.52801 -2.77556e-17 2.77556e-17 -5.55112e-17 -0.708538 -1.41495 -5.55112e-17 -0.377818 -5.55112e-17 
0 2.77556e-17 -8.01747 -9.83731 -7.95998 -10.3502 -8.4087 -7.49984 -9.79569 
-9.86289 -9.72655 -10.1123 -9.5295 -1.81289 -6.11328 -4.86573 -3.02269 -7.17971 
-5.84082 -5.37331 -5.7242 -6.04091 -4.64457 -4.688 -5.0254 -4.83127 -5.63946 
-4.77224 -4.28366 -6.77626 -7.16932 -9.31885 -6.96816 -8.64325 -9.5084 -10.1707 
-8.41586 -8.198 -7.07183 -9.79435 -9.24637 -2.48602 -1.13859 -2.37475 -3.48563 
-5.85392 -3.62058 -1.38778e-17 -0.365901 -1.09979 0 5.55112e-17 1.38778e-17 -0.718416 
-9.53072 -8.39595 -7.92258 -7.43769 -5.43008 -8.79435 -9.24805 -8.93756 -9.41656 
-8.86915 -8.06782 -1.72761 -2.78954 -3.95287 -4.6167 -4.70065 -4.99974 -4.96817 
-4.26212 -3.2525 -4.49628 -3.37592 -4.92852 -4.4927 -5.89278 -3.78193 -3.56203 
-6.13971 -5.89028 -8.16107 -6.91777 -7.24289 -9.28475 -8.75466 -8.60515 -9.12306 
-7.84531 -6.13463 -7.16059 -8.37293 -1.19449 -0.29799 -2.83656 -1.58896 -1.38248 
-3.41393 -4.50196 0 2.77556e-17 -2.77556e-17 4.16334e-17 0 2.77556e-17 -0.460561 
-8.5683 -6.60033 -7.72244 -6.059 -5.63326 -3.7895 -8.75823 -8.47945 -8.20957 
-8.47619 -8.09363 -8.07358 -1.8469 -1.32219 -2.4029 -1.29231 -4.10743 -3.39312 
-3.93592 -4.13964 -5.11499 -3.58563 -2.79895 -2.32206 -2.28061 -3.90309 -5.6058 
-4.48087 -3.4758 -3.01742 -2.82134 -5.3892 -3.99952 -7.30693 -5.90202 -7.95726 
-7.98926 -7.26073 -8.6521 -7.76884 -5.21115 -6.03215 -6.43251 -6.90086 -2.77556e-17 
-1.38778e-17 -0.110823 0 -2.31547 -1.01166 -0.762296 -0.849033 -2.18831 -2.92872 
0 -0.102472 -0.923312 -7.72081 -6.40036 -7.09936 -6.78518 -6.0931 -7.7167 
-4.73264 -3.58027 -8.39106 -7.99654 -7.99737 -7.63592 -7.56443 -7.66532 -7.33296 
-1.36359 -2.39356 -0.655965 -2.68781 -2.89019 -4.58711 -2.96574 -3.99328 -1.84409 
-0.828827 -1.98293 -0.952474 -1.19932 -2.12648 -2.89414 -4.76364 -3.39297 -3.92293 
-2.03505 -1.95114 -5.19961 -1.94766 -3.52559 -5.45059 -6.20381 -7.21293 -7.25041 
-7.31006 -6.32964 -5.76555 -7.16871 -4.76504 -5.94411 -4.95779 -5.37191 -4.63422 
1.38778e-17 1.38778e-17 0 -0.0182319 -0.435781 -0.521198 -0.456341 -0.9047 -0.296798 
-0.152909 -1.3652 0 0 0 -2.77556e-17 -2.77556e-17 -5.69608 -6.25846 
-7.18859 -6.62281 -4.67914 -3.38997 -2.57494 -7.3576 -7.30778 -6.87507 -6.28057 
-6.54871 -7.17982 -6.65994 -6.97937 -6.17151 -6.45975 -1.1081 4.16334e-17 2.77556e-17 
-2.10628 -4.29957 -3.31666 -0.71719 -0.271365 -0.180652 -0.444008 -0.21798 -0.348671 
-1.22842 -2.28601 -3.79586 -2.77878 -1.13405 -4.43148 -1.5598 -1.66373 -2.73724 
-3.56419 -5.26365 -6.33154 -6.16607 -5.78644 -5.46288 -4.86896 -5.08699 -4.8833 
-3.7178 -4.29628 -4.85946 0 0 -0.157104 -0.242897 0 2.77556e-17 
-0.398654 -0.176236 -0.111076 0 1.38778e-17 1.38778e-17 0 -0.594261 -4.63436 
-5.04698 -5.29603 -6.0024 -6.91114 -6.03491 -5.45136 -3.78789 -2.65354 -2.28222 
-6.6575 -5.41194 -5.81157 -5.83488 -4.96084 -5.87421 -5.4659 -6.60784 -5.71321 
-5.83362 -5.04016 -5.2953 -1.00639 -2.77556e-17 -1.15125 -2.20638 -0.202592 0 
0 -0.0379239 2.77556e-17 1.38778e-17 6.93889e-18 6.93889e-18 0 -1.38778e-17 2.77556e-17 
-0.302578 -1.05742 -2.13126 -3.10727 1.38778e-17 0 -0.956967 -0.714845 -1.03807 
-2.79649 -1.60279 -0.92961 -2.59058 -5.80814 -5.22054 -4.55394 -4.89345 -3.66126 
-2.9623 -3.45473 -3.58058 -4.14848 -5.21377 -3.04617 -2.42738 -2.7604 0 
-2.77556e-17 0 -1.38778e-17 6.93889e-18 0 0 0 -1.38778e-17 -0.195192 
0 0 0 -0.206078 -0.507171 -4.3312 -3.80084 -4.74756 -3.64462 
-5.70897 -5.7299 -4.1071 -4.64213 -5.37685 -1.78726 -2.24259 -2.7285 -0.687972 
-4.74237 -4.46617 -5.32774 -5.05194 -4.38881 -4.72246 -4.60622 -5.31568 -5.41701 
-4.09497 -4.6482 -3.97875 -4.25416 -4.70564 -5.55112e-17 -2.77556e-17 0 -0.542268 
-1.21184 -2.06537 0 2.77556e-17 0 0 0 0 -1.38778e-17 
-2.63367 -0.181853 0 -0.642205 -0.340201 -0.93773 -1.17445 -0.525628 -0.487249 
-1.75528 -3.35463 -4.28549 -3.83972 -2.92692 -3.18445 -2.24933 -2.11792 -3.27728 
-3.39195 -3.95169 -3.16706 -2.21302 0 0 0 0 6.93889e-18 
-0.0340419 -3.00784 -2.6409 -4.46902 -3.40035 -3.07722 -2.11213 -2.38766 -1.4188 
-1.62159 -3.17047 -2.77556e-17 2.77556e-17 -0.169509 -3.92682 -4.15453 -3.46303 -3.54606 
-4.64175 -4.86033 -4.46618 -3.59549 -3.88498 -3.51184 -3.4597 -3.44485 -3.01361 
-1.38778e-17 -0.199936 -0.59707 -0.931535 -1.16784 -1.78046 0 2.77556e-17 0 
2.77556e-17 -0.315304 -0.889026 -0.354822 0 0 0 -0.593564 -0.260404 
-0.793006 -6.93889e-18 0 -0.242961 -1.23222 -2.25576 -2.21189 -2.53699 -2.46628 
-1.34155 -1.42643 -1.52741 -1.96406 -1.13691 -1.7198 -2.66032 -3.38721 -2.01158 
-0.817967 6.93889e-18 0 -1.34647 -3.81324 -2.87305 -2.06054 -1.46307 -1.13554 
-1.44409 -1.1678 -2.16109 -3.02414 -1.46658 1.38778e-17 2.77556e-17 0 -2.77556e-17 
-0.38438 -3.28964 -2.46573 -2.57858 -3.96322 -3.53519 -4.36888 -3.26534 -4.08167 
-3.5056 -2.37551 -1.58436 -1.75742 -2.04919 0 1.38778e-17 -1.38778e-17 2.77556e-17 
-1.38778e-17 0 -2.77556e-17 2.77556e-17 -0.224257 -2.77556e-17 0 0 -5.55112e-17 
-1.38778e-17 -0.0968704 0 -0.434207 -0.141898 1.38778e-17 -2.77556e-17 -0.740801 0 
-1.48733 -0.996946 -1.81681 -1.61946 -0.899046 -0.774219 -0.388057 -0.574545 -1.63966 
-0.0594312 -0.743745 2.77556e-17 6.93889e-18 0 -0.903912 -1.44683 0 4.16334e-17 
5.55112e-17 -1.09526 -2.5082 -1.83282 -0.462601 -0.41728 2.77556e-17 1.38778e-17 0 
-3.36818 -0.878101 -1.58623 -2.25516 -0.0102126 -2.77556e-17 -2.77556e-17 -2.5567 -1.90637 
-2.11729 -3.23223 -2.88381 -2.77996 -2.02188 -0.832802 -1.54617 -0.515535 -1.56292 
0 0 2.77556e-17 2.77556e-17 0 0 0 0 -0.0990832 
0 2.77556e-17 -1.38778e-17 -1.03188 -0.283318 -0.618078 -0.822537 -0.487202 -0.19048 
-0.393843 1.38778e-17 -1.38778e-17 -0.484213 -2.77556e-17 -0.115913 0 0 -0.161099 
-0.40968 4.16334e-17 -0.169134 -0.500648 -1.70026 -0.646136 -0.506093 2.77556e-17 1.38778e-17 
1.38778e-17 2.77556e-17 -2.93367 -0.337344 -1.52533 -2.3379 -1.73472e-18 -1.73472e-18 -1.11266 
-1.05027 -2.15932 -2.3164 -1.46734 -2.2705 -0.915902 -0.931917 -5.55112e-17 5.55112e-17 
-2.77556e-17 -5.55112e-17 0 2.77556e-17 2.77556e-17 0 -1.11022e-16 -0.157021 0 
0 -0.382351 2.77556e-17 2.77556e-17 1.38778e-17 0 2.77556e-17 5.55112e-17 -0.0794863 
-2.77556e-17 0 0 1.38778e-17 0 -0.342732 0 0 0 
1.38778e-17 0 0 1.38778e-17 6.93889e-18 1.38778e-17 -1.38778e-17 0 -6.93889e-18 
1.38778e-17 1.38778e-17 -0.138505 -0.201201 0 2.77556e-17 0 -2.77556e-17 -2.45842 
-0.152239 0 -0.80638 -1.09151 -1.79514 -2.16614 0 1.38778e-17 5.55112e-17 
-0.944169 -1.76427 -1.46604 -1.06977 -0.907152 5.55112e-17 0 -2.77556e-17 1.38778e-17 
0 0 0 0 -1.38778e-17 -2.77556e-17 0 0 0 
0 0 1.38778e-17 0 -0.320939 -0.725745 -1.38659 -1.76258 4.51028e-17 
1.73472e-18 -0.635968 -1.1462 -0.668276 3.98986e-17 2.77556e-17 2.77556e-17 -0.236294 -0.0638314 
-2.77556e-17 -1.27678 -1.45342 -5.55112e-17 -0.159726 1.38778e-17 -0.812069 -0.157486 -6.93889e-18 
0 -0.446777 0 -6.93889e-18 0 0 -0.960996 -0.418915 0 
0 1.38778e-17 -2.77556e-17 1.38778e-17 -0.17382 0 0 5.55112e-17 0 
5.55112e-17 0 0 -2.77556e-17 1.38778e-17 
