# vtk DataFile Version 4.2
3D Slicer output. SPACE=LPS
ASCII
DATASET POLYDATA
POINTS 7216 float
-120.992 30.333 20.4094 -120.992 30.6719 20.5222 -121.022 30.6719 20.4094 
-120.881 30.6719 20.9094 -120.834 30.1719 20.9094 -120.973 30.1719 20.4094 
-121.082 30.6719 19.9094 -120.992 30.1719 20.29 -121.062 31.1719 20.4094 
-120.992 31.1719 20.7264 -120.768 30.6719 21.4094 -120.943 31.1719 20.9094 
-120.821 31.1719 21.4094 -120.88 29.6719 20.4094 -120.77 29.6719 20.9094 
-120.722 30.1719 21.4094 -121.108 30.6719 19.4094 -121.06 30.1719 19.4094 
-121.029 30.1719 19.9094 -121.111 31.1719 19.9094 -120.992 29.9718 19.9094 
-121.091 31.6719 20.4094 -120.992 31.566 20.9094 -120.659 30.6719 21.9094 
-120.705 31.1719 21.9094 -120.868 31.6719 21.4094 -120.741 31.6719 21.9094 
-120.765 29.1719 20.4094 -120.926 29.6719 19.9094 -120.836 29.1719 19.9094 
-120.659 29.1719 20.9094 -120.653 29.6719 21.4094 -120.582 30.1719 21.9094 
-120.492 29.7665 21.9094 -121.184 30.6719 18.9094 -121.142 30.1719 18.9094 
-121.158 31.1719 19.4094 -120.992 29.7299 19.4094 -121.145 31.6719 19.9094 
-120.999 31.6719 20.9094 -120.992 32.1651 20.9094 -121.09 32.1719 20.4094 
-120.492 30.1719 22.1381 -120.492 30.6719 22.3502 -120.492 31.0057 22.4094 
-120.502 31.1719 22.4094 -120.539 31.6719 22.4094 -120.849 32.1719 21.4094 
-120.728 32.1719 21.9094 -120.589 32.1719 22.4094 -120.611 28.6719 20.4094 
-120.68 28.6719 19.9094 -120.892 29.1719 19.4094 -120.737 28.6719 19.4094 
-120.523 28.6719 20.9094 -120.548 29.1719 21.4094 -120.492 28.9846 21.4094 
-120.492 28.6719 21.0503 -120.492 29.1719 21.5618 -120.492 29.6719 21.8543 
-120.262 29.6719 22.4094 -121.231 30.6719 18.4094 -121.187 30.1719 18.4094 
-121.244 31.1719 18.9094 -121.13 29.6719 18.4094 -121.086 29.6719 18.9094 
-121.192 31.6719 19.4094 -120.992 29.3043 18.9094 -121.156 32.1719 19.9094 
-121.174 32.1719 19.4094 -120.992 32.1719 20.9049 -120.992 32.6719 20.6988 
-121.053 32.6719 20.4094 -121.116 32.6719 19.9094 -120.371 30.1719 22.4094 
-120.219 30.6719 22.9094 -120.271 31.1719 22.9094 -120.492 31.6719 22.5161 
-120.798 32.6719 21.4094 -120.937 32.6719 20.9094 -120.681 32.6719 21.9094 
-120.554 32.6719 22.4094 -120.492 32.1719 22.6348 -120.492 32.6719 22.5648 
-120.523 28.1719 19.9094 -120.492 28.1719 20.3992 -120.492 28.1751 20.4094 
-120.492 28.5077 20.9094 -120.584 28.1719 19.4094 -120.95 29.1719 18.9094 
-120.781 28.6719 18.9094 -120.638 28.1719 18.9094 -120.4 28.6719 21.4094 
-120.206 28.6719 21.9094 -120.296 28.1719 21.4094 -120.341 29.1719 21.9094 
-120.139 29.1719 22.4094 -120.067 29.6719 22.9094 -119.992 29.3331 22.9094 
-120.129 30.1719 22.9094 -121.199 30.6719 17.9094 -121.284 31.1719 18.4094 
-121.259 31.1719 17.9094 -121.144 30.1719 17.9094 -121.25 31.6719 18.9094 
-121.277 31.6719 18.4094 -121.068 29.6719 17.9094 -120.992 29.3824 17.9094 
-120.992 29.2486 18.4094 -121.196 32.1719 18.9094 -121.13 32.6719 19.4094 
-121.169 32.6719 18.9094 -120.992 33.1719 20.5195 -120.884 33.1719 20.9094 
-121.014 33.1719 20.4094 -121.05 33.1719 19.9094 -121.057 33.1719 19.4094 
-119.992 30.1719 23.1898 -119.992 30.6719 23.348 -119.992 30.9814 23.4094 
-120.32 31.6719 22.9094 -120.01 31.1719 23.4094 -120.069 31.6719 23.4094 
-120.736 33.1719 21.4094 -120.621 33.1719 21.9094 -120.492 33.0155 22.4094 
-120.357 32.1719 22.9094 -120.337 32.6719 22.9094 -120.268 33.1719 22.9094 
-120.492 28.0083 19.9094 -120.403 27.6719 20.4094 -120.435 28.1719 20.9094 
-120.492 27.8013 19.4094 -120.808 28.6719 18.4094 -120.655 28.1719 18.4094 
-120.492 27.6719 18.497 -120.492 27.6719 18.9094 -120.086 28.1719 21.9094 
-119.999 28.6719 22.4094 -119.992 28.6357 22.4094 -119.992 28.1719 22.1589 
-120.178 27.6719 21.4094 -120.338 27.6719 20.9094 -119.992 29.1719 22.7996 
-119.992 29.6719 23.072 -119.945 29.1719 22.9094 -119.71 29.1719 23.4094 
-121.128 30.6719 17.4094 -121.204 31.1719 17.4094 -121.262 31.6719 17.9094 
-121.209 31.6719 17.4094 -121.068 30.1719 17.4094 -120.992 29.6719 17.4989 
-121.214 32.1719 18.4094 -120.824 29.1719 17.4094 -120.926 29.1719 17.9094 
-121.192 32.6719 18.4094 -121.127 33.1719 18.9094 -121.16 33.1719 18.4094 
-120.992 33.412 20.4094 -120.832 33.6719 20.9094 -120.992 33.7244 19.9094 
-120.992 33.7397 19.4094 -120.992 33.6719 20.0932 -121.024 33.6719 18.9094 
-119.871 30.1719 23.4094 -119.816 29.6719 23.4094 -119.654 30.6719 23.9094 
-119.72 31.1719 23.9094 -120.099 32.1719 23.4094 -119.992 31.6719 23.5376 
-120.668 33.6719 21.4094 -120.543 33.6719 21.9094 -120.492 33.1719 22.3173 
-120.492 33.6719 22.0741 -120.459 33.1719 22.4094 -120.092 32.6719 23.4094 
-120.178 33.6719 22.9094 -120.371 33.6719 22.4094 -120.046 33.1719 23.4094 
-119.992 33.5402 23.4094 -120.425 27.6719 19.9094 -120.3 27.1719 19.9094 
-120.288 27.1719 20.4094 -120.457 27.6719 19.4094 -120.792 28.6719 17.9094 
-120.621 28.1719 17.9094 -120.492 27.8053 17.9094 -120.448 27.6719 17.9094 
-120.358 27.1719 18.4094 -120.355 27.1719 18.9094 -119.992 27.7163 21.9094 
-119.8 28.6719 22.9094 -119.896 28.1719 22.4094 -119.788 27.6719 22.4094 
-119.992 27.0806 21.4094 -120.215 27.1719 20.9094 -119.569 28.6719 23.4094 
-119.492 28.6719 23.5629 -119.492 29.1719 23.7729 -121.111 30.6719 16.9094 
-121.145 31.1719 16.9094 -121.204 32.1719 17.9094 -121.124 31.6719 16.9094 
-121.175 32.1719 17.4094 -121.054 30.1719 17.0535 -121.023 29.9916 17.1145 
-120.992 29.7375 17.4094 -121.073 30.3674 16.9094 -120.815 29.1719 17.327 
-120.762 28.9803 17.4094 -120.971 29.7103 17.202 -120.851 29.2838 17.2975 
-121.155 32.6719 17.9094 -121.044 33.6719 18.4094 -121.11 33.1719 17.9094 
-120.958 33.6719 20.4094 -120.738 34.1719 20.9094 -120.834 34.1719 20.4094 
-120.877 34.1719 19.9094 -120.992 33.7992 18.9094 -120.868 34.1719 19.4094 
-119.558 30.1719 23.9094 -119.492 29.6965 23.9094 -119.492 30.1719 24.0074 
-119.492 30.6719 24.1691 -119.771 31.6719 23.9094 -119.492 31.1719 24.2894 
-119.992 32.1719 23.5906 -120.571 34.1719 21.4094 -120.492 33.8845 21.9094 
-120.492 34.1719 21.6613 -120.258 34.1719 22.4094 -119.992 32.6719 23.5994 
-119.992 33.1719 23.5148 -119.992 33.6719 23.3622 -120.079 34.1719 22.9094 
-119.992 34.1719 23.1366 -119.7 33.6719 23.9094 -119.777 33.1719 23.9094 
-120.338 27.1719 19.4094 -120.246 26.6719 19.4094 -120.178 26.6719 19.9094 
-120.158 26.6719 20.4094 -120.7 28.6719 17.5547 -120.568 28.1497 17.7036 
-120.645 28.4644 17.617 -120.492 27.8805 17.7891 -120.471 27.7809 17.8181 
-120.44 27.6719 17.8519 -120.408 27.4995 17.9094 -120.262 26.6719 18.4094 
-120.337 27.1719 18.0201 -120.292 26.6719 18.9094 -119.864 27.1719 21.9094 
-119.714 28.1719 22.9094 -119.492 28.2607 23.4094 -119.692 27.1719 22.4094 
-119.591 27.6719 22.9094 -119.765 26.6719 21.9094 -119.886 26.6719 21.4094 
-119.992 26.6719 21.1209 -120.068 26.6719 20.9094 -119.306 28.6719 23.9094 
-119.24 28.1719 23.9094 -119.402 29.1719 23.9094 -121.094 30.6719 16.5926 
-121.093 31.1719 16.4094 -121.086 30.817 16.4094 -121.047 31.6719 16.4094 
-121.108 32.1719 16.9094 -121.135 32.6719 17.4094 -120.992 29.7979 17.1745 
-121.025 33.6719 17.9094 -120.992 33.8676 18.4094 -120.992 33.8012 17.9094 
-121.081 33.1719 17.4094 -120.58 34.6719 20.9094 -120.683 34.6719 20.4094 
-120.492 34.5031 21.4094 -120.492 34.6719 21.2588 -120.721 34.6719 19.9094 
-120.89 34.1719 18.9094 -120.716 34.6719 19.4094 -120.766 34.6719 18.9094 
-119.121 29.6719 24.4094 -119.235 30.1719 24.4094 -119.342 30.6719 24.4094 
-119.492 31.6719 24.3572 -119.808 32.1719 23.9094 -119.492 32.0154 24.4094 
-119.417 31.1719 24.4094 -119.824 32.6719 23.9094 -120.417 34.1719 21.9094 
-120.308 34.6719 21.9094 -120.135 34.6719 22.4094 -119.992 34.4981 22.9094 
-119.873 34.1719 23.4094 -119.733 34.6719 23.4094 -119.492 33.6719 24.2667 
-119.631 34.1719 23.9094 -119.492 34.1719 24.1486 -119.492 33.1136 24.4094 
-119.492 33.1719 24.3946 -120.204 26.1719 18.9094 -120.133 26.1719 19.4094 
-120.066 26.1719 19.9094 -120.031 26.1719 20.4094 -119.992 26.4112 20.9094 
-119.992 26.1719 20.6561 -120.148 26.1719 18.4094 -120.238 26.6719 18.1631 
-120.31 27.0187 18.0627 -119.492 27.6719 23.1828 -119.409 27.6719 23.4094 
-119.623 26.6719 22.4094 -119.492 26.6719 22.7249 -119.492 27.2358 22.9094 
-119.789 26.1719 21.4094 -119.681 26.1719 21.9094 -118.992 28.1719 24.2939 
-118.992 28.6719 24.3844 -118.992 28.8334 24.4094 -119.137 27.6719 23.9094 
-118.992 27.6719 24.1278 -119.031 29.1719 24.4094 -120.992 31.0081 15.8549 
-121.035 30.9211 16.1235 -120.992 31.1719 15.8224 -120.992 31.6719 16.0552 
-120.992 31.4563 15.9094 -121.022 32.1719 16.4094 -120.992 32.1719 16.2532 
-121.088 32.6719 16.9094 -120.992 33.6732 17.4094 -120.91 34.1719 18.4094 
-120.888 34.1719 17.9094 -120.838 34.1719 17.4094 -120.992 33.1719 16.8298 
-120.992 33.6719 17.4073 -120.992 33.2494 16.9094 -120.492 35.1268 20.9094 
-120.603 35.1719 20.4094 -120.629 35.1719 19.9094 -120.449 34.6719 21.4094 
-120.351 35.1719 21.4094 -120.797 34.6719 18.4094 -120.627 35.1719 19.4094 
-120.656 35.1719 18.9094 -120.673 35.1719 18.4094 -118.992 29.6719 24.602 
-118.992 30.1719 24.7876 -118.992 30.5732 24.9094 -119.01 30.6719 24.9094 
-119.087 31.1719 24.9094 -119.136 31.6719 24.9094 -119.507 32.1719 24.4094 
-119.533 32.6719 24.4094 -119.134 32.1719 24.9094 -120.203 35.1719 21.9094 
-119.992 35.1647 22.4094 -119.992 34.6719 22.7809 -119.94 34.6719 22.9094 
-119.584 35.1719 23.4094 -119.8 35.1719 22.9094 -119.492 34.6697 23.9094 
-119.492 34.6719 23.9079 -119.492 35.1719 23.5792 -119.405 33.6719 24.4094 
-119.324 34.1719 24.4094 -119.166 34.6719 24.4094 -119.159 33.1719 24.9094 
-120.061 25.6719 18.9094 -120 25.6719 19.4094 -119.992 25.8547 19.9094 
-119.992 26.0003 20.4094 -119.927 26.1719 20.9094 -119.836 25.6719 20.9094 
-120.132 26.1719 18.2874 -120.116 26.1043 18.305 -120.096 26.0065 18.3399 
-120.078 25.8832 18.4094 -120.17 26.3382 18.2432 -119.282 27.1719 23.4094 
-119.532 26.1719 22.4094 -119.492 26.1719 22.5168 -119.405 26.6719 22.9094 
-119.33 26.1719 22.9094 -119.72 25.6719 21.4094 -119.583 25.6719 21.9094 
-119.492 25.9804 22.4094 -119.492 25.6719 22.2095 -118.913 28.1719 24.4094 
[...]
POINT_DATA 7216
SCALARS scalars float
LOOKUP_TABLE default
-3.2111 -3.42234 -3.3177 -3.78516 -3.63446 -3.16332 -2.85109 -3.05069 -3.49374 
-3.78497 -4.25904 -3.9542 -4.42068 -3.01747 -3.49136 -4.11094 -2.38702 -2.21903 
-2.69066 -3.0375 -2.63037 -3.69953 -4.1048 -4.73639 -4.89255 -4.60373 -5.06759 
-2.87473 -2.54185 -2.40022 -3.34979 -3.96846 -4.59027 -4.47553 -1.93709 -1.76037 
-2.58953 -2.08646 -3.25713 -4.14731 -4.36395 -3.93388 -4.81121 -5.16162 -5.32034 
-5.3726 -5.53975 -4.81266 -5.26535 -5.7268 -2.72992 -2.25439 -1.92741 -1.77998 
-3.20579 -3.82731 -3.77367 -3.33984 -3.97316 -4.39571 -4.93539 -1.49581 -1.30723 
-2.15713 -1.15568 -1.61176 -2.82619 -1.50072 -3.5097 -3.09674 -4.36318 -4.43752 
-4.19804 -3.79156 -5.07548 -5.71057 -5.86084 -5.64201 -5.04807 -4.6153 -5.48911 
-5.94003 -5.9384 -6.08247 -2.10585 -2.57277 -2.58341 -3.15763 -1.63184 -1.46007 
-1.30749 -1.16018 -3.68228 -4.16241 -3.53357 -4.30818 -4.79375 -5.42493 -5.32804 
-5.56838 -1.05225 -1.73535 -1.32328 -0.843092 -2.41259 -2.0156 -0.680188 -0.588881 
-1.01748 -2.70372 -3.40157 -3.03572 -4.57672 -4.89199 -4.49017 -4.10342 -3.73784 
-5.84741 -6.1479 -6.30097 -6.02187 -6.35833 -6.5137 -5.30936 -5.73861 -6.10158 
-6.20078 -6.40413 -6.63348 -2.05749 -2.43515 -3.05829 -1.52113 -0.838894 -0.688049 
-0.615459 -1.00831 -4.01471 -4.648 -4.63726 -4.25292 -3.38764 -2.91106 -5.1741 
-5.5857 -5.28178 -5.69363 -0.616897 -0.935794 -1.64002 -1.2973 -0.381348 -0.293165 
-2.33445 -0.0955784 -0.521442 -2.6951 -3.39493 -3.0822 -4.64064 -5.19439 -4.48103 
-4.14861 -4.57543 -3.77881 -6.06841 -5.92233 -6.72021 -6.8657 -6.68582 -6.64245 
-5.59619 -6.0126 -6.09751 -6.15197 -6.17951 -6.88056 -6.88649 -6.44203 -7.09869 
-7.27483 -1.95781 -1.8112 -2.29122 -1.48207 -0.375691 -0.216781 -0.0981337 -0.0570528 
-0.381008 -0.857065 -3.7406 -5.02135 -4.35319 -3.91023 -2.97212 -2.76953 -5.24947 
-5.31906 -5.85632 -0.240596 -0.596274 -1.99492 -1.00821 -1.69642 -2.77556e-17 0 
-0.234973 1.38778e-17 0 6.93889e-18 0 1.38778e-17 -2.38614 -3.49092 -2.80183 
-4.80816 -5.51905 -5.15339 -4.80493 -3.87974 -4.48339 -6.58073 -6.37984 -6.68264 
-6.98862 -7.0185 -7.25662 -6.86559 -5.90928 -6.13696 -6.10982 -6.73013 -7.0645 
-7.1988 -7.29672 -7.15979 -7.35993 -7.81414 -7.57983 -1.33412 -1.19659 -1.67415 
-2.15671 -1.38778e-17 2.77556e-17 0 0 -1.38778e-17 0 0 -0.245161 
-1.38778e-17 -0.723555 -3.24175 -4.58256 -4.88732 -3.47222 -4.14044 -2.80279 -2.58255 
-2.50149 -2.44589 -5.47593 -5.02899 -5.91729 1.38778e-17 -0.340106 1.38778e-17 -0.793931 
-1.44937 -2.12276 0 -3.23642 -3.6547 -3.35022 -2.56426 -5.87212 -5.51841 
-6.12715 -6.12834 -5.19235 -4.1853 -4.8877 -4.60797 -6.583 -7.02585 -7.23822 
-7.47929 -7.18457 -7.6416 -7.38121 -7.36868 -6.31141 -6.63277 -7.03742 -7.35381 
-7.60533 -7.89455 -8.15986 -8.0647 -8.2917 -8.04783 -8.05852 -0.599376 -1.06261 
-1.52518 -1.79533 -2.193 -1.88577 -0.125799 2.77556e-17 0 -4.26725 -4.3724 
-3.03978 -3.18276 -3.75594 -2.12894 -2.3712 -5.15279 -5.64621 -5.80421 -4.5637 
-4.6314 -6.11897 2.77556e-17 0 -0.151808 -0.689144 -0.447675 -1.26588 -1.22355 
-1.90627 -3.02179 -3.91645 -3.68296 -3.48775 -2.34738 -3.0198 -2.44688 -6.20328 
-5.9015 -5.59028 -6.24224 -6.59561 -4.359 -5.30691 -5.04399 -4.8106 -6.65006 
-7.18184 -7.59853 -7.69097 -7.90706 -8.05654 -7.6924 -7.86836 -8.22152 -6.96925 
-7.36448 -7.34981 -7.46007 -8.20429 -7.77787 -8.34428 -8.34424 -8.3555 -8.30009 
-8.54553 -8.82331 -8.58174 -0.428211 -0.83007 -1.27965 -1.63673 -1.96079 -1.48727 
0 0 0 -6.93889e-18 0 -3.92725 -2.60669 -2.65581 -3.26523 
-2.83302 -1.70348 -1.94123 -2.44072 -2.08176 -5.18749 -4.71455 -5.74316 -6.24764 
-4.0936 -4.23488 1.38778e-17 0 -0.0977549 -0.658518 -1.15061 -0.596446 -1.73225 
-1.64427 -4.14452 -3.33643 -2.8489 -3.96551 -2.23177 -2.72725 -6.2197 -6.39955 
-6.29632 -6.00452 -5.73439 -6.96556 -6.62003 -5.48954 -5.2728 -4.61139 -6.74762 
-7.22186 -7.74495 -8.04516 -8.26731 -8.3941 -8.43277 -7.32805 -7.36561 -7.50085 
-8.37993 -8.1125 -7.71125 -8.65373 -8.80477 -8.98645 -9.00848 -9.06153 -9.16633 
-8.62021 -8.82431 -8.92473 -1.38778e-17 -2.77556e-17 -0.316522 -0.44409 -1.11812 -0.673823 
-1.32608 -0.849897 -1.02485 -3.46564 -3.99309 -2.38283 -3.01215 -1.27859 -1.55361 
-2.17329 -1.74242 -5.24399 -4.93109 -4.25564 -4.75323 -5.73674 -6.23603 -3.74844 
-3.75634 0 -0.097562 -1.09571 -0.595022 -2.14018 -1.59505 -3.22814 -3.82646 
-3.6546 -4.44539 -2.64722 -6.40981 -7.0173 -6.18697 -6.06134 -7.35159 -7.5662 
-7.59301 -5.93722 -6.10239 -5.08499 -5.73305 -6.73487 -7.23242 -8.24606 -7.72798 
-8.60619 -8.75905 -8.07397 -8.40624 -8.53719 -8.97727 -8.46927 -9.20216 -9.56754 
-9.32773 -9.31991 -9.61008 -9.43221 -8.92713 -9.11411 1.38778e-17 0 -0.140242 
0 1.38778e-17 4.16334e-17 -0.247217 -0.389588 -0.585407 -0.98118 -3.08581 -3.59255 
-3.62835 -1.93195 -2.5551 -2.02299 -1.07263 -1.28132 -5.19623 -4.69542 -4.24688 
-3.74007 -4.51744 -5.69536 -6.20732 -3.15817 -3.25037 -3.23534 0 1.38778e-17 
-0.141451 -1.09582 -0.636995 -2.09941 -1.60017 -3.16459 -3.74173 -4.31924 -3.67837 
-4.23483 -4.9291 -4.88447 -2.61539 -2.73302 -6.70832 -7.42293 -7.13063 -6.42935 
-6.17157 -7.74489 -7.70055 -8.08114 -6.14941 -6.61415 -5.54755 -5.11097 -6.19693 
-6.1361 -6.30205 -6.72093 -7.14073 -7.06114 -8.21887 -8.70787 -7.65911 -9.09025 
-8.4421 -8.46949 -8.65103 -8.89163 -9.21958 -9.77402 -9.71991 -9.54474 -9.67379 
-9.41157 -9.74405 -9.81258 -9.85141 -9.86533 -9.92202 -9.27901 0 0 
1.38778e-17 0 -2.77556e-17 -0.139929 -0.165613 -0.839616 -2.68194 -1.45716 -1.50581 
-2.08028 -1.61015 -0.373977 -0.609312 -0.706068 -0.946151 -5.18159 -4.6147 -3.71006 
-4.20083 -3.21678 -4.11253 -5.67023 -6.16057 -6.64906 -3.09384 -2.73427 -2.7277 
1.38778e-17 -1.38778e-17 -1.38778e-17 -0.170876 -0.666105 -1.13764 -1.52546 -1.15567 -2.10848 
-2.61637 -2.27562 -1.64197 -2.11926 -3.14402 -4.81252 -3.65672 -4.17587 -4.73006 
-5.30225 -6.85977 -7.8331 -7.55167 -7.29476 -8.13864 -8.46763 -6.39253 -7.05653 
-6.90826 -5.41385 -6.03213 -5.89504 -6.66153 -6.57893 -6.50819 -6.84728 -7.62159 
-6.62474 -6.52958 -7.09133 -8.16239 -8.6529 -9.14482 -9.49464 -8.81784 -8.94906 
-8.8404 -9.20231 -9.24647 -9.23625 -9.36232 -9.31792 -10.0644 -9.66211 -9.83402 
-10.3605 -10.1267 -9.90367 -9.6858 -10.117 -10.4331 -10.2528 -10.5209 -10.5807 
1.38778e-17 1.38778e-17 0 0 0 -0.135105 -2.20492 -2.24355 -2.74707 
-0.999289 -1.12635 -1.14944 -1.71085 -1.80092 -0.142822 -0.821944 -0.342672 -5.1138 
-4.59056 -3.69444 -3.19027 -3.85811 -2.69067 -3.9894 -3.729 -5.60827 -6.11773 
-2.75225 -2.26175 -2.35872 0 -1.38778e-17 -0.191979 -0.690007 -1.18897 -1.69273 
-2.63425 -2.68041 -2.15057 -3.16293 -3.67221 -4.1533 -4.67116 -5.22353 -5.78797 
-8.2417 -8.5379 -7.972 -7.72793 -7.6072 -7.27062 -8.60806 -8.85534 -7.30257 
-6.37631 -6.2724 -6.66573 -6.69315 -6.8111 -6.82987 -7.52514 -8.10688 -8.0302 
-6.04457 -6.50521 -6.89544 -7.49983 -8.59291 -9.0797 -9.56601 -9.20161 -9.27623 
-9.57819 -9.57384 -9.59514 -9.85507 -10.0158 -10.092 -10.2843 -10.3665 -10.4726 
-10.2376 -10.9338 -10.6966 -10.1009 -9.99982 -10.9468 -10.6169 -10.7431 -10.74 
-11.1931 -10.8576 -10.4555 1.38778e-17 0 -1.75871 -0.521233 -1.0255 -0.556584 
-1.22999 0 0 0 -0.13753 -5.0751 -4.48927 -5.0027 -3.13826 
-3.62285 -2.65279 -2.17516 -2.16419 -4.46726 -3.86095 -3.50111 -3.37613 -5.55975 
-1.74583 -2.23864 0 -0.210301 -0.710312 -1.2103 -1.71103 -2.20839 -2.22272 
-1.99479 -3.1365 -2.72151 -2.55175 -3.68356 -4.17313 -4.65413 -4.66516 -5.17257 
-5.71644 -6.20247 -8.66105 -8.94715 -8.404 -8.23808 -8.01247 -7.50203 -7.95529 
-9.0852 -9.24705 -9.58601 -7.1316 -7.76442 -7.5974 -6.85701 -6.81395 -6.75878 
-6.68851 -6.98254 -7.9858 -8.52565 -8.47234 -6.00235 -5.50432 -6.40891 -7.38232 
-6.86496 -7.71273 -9.02148 -9.51627 -9.99808 -9.65897 -9.96198 -10.1507 -9.97135 
-10.3478 -10.3846 -10.4779 -10.818 -10.6405 -11.0094 -10.8247 -11.2988 -10.4727 
-10.4273 -11.1498 -11.0753 -11.2119 -11.2971 -11.7569 -11.7679 -11.4956 -10.8897 
-11.4409 -11.0594 -1.25189 0 -2.77556e-17 -0.649609 2.77556e-17 -0.737942 -1.14243 
-0.755209 0 0 -4.95194 -5.43708 -3.11311 -2.59768 -2.09328 -1.86878 
-4.34685 -4.70037 -3.83504 -3.01913 -2.98855 -2.89224 -3.33692 -1.73164 -1.23034 
1.38778e-17 0 -0.198172 -0.695823 -1.19531 -1.70491 -2.21813 -2.73501 -2.16702 
-1.67259 -3.71988 -3.25083 -2.73556 -4.22619 -4.67628 -5.1577 -5.1612 -5.17829 
-5.67407 -6.1628 -6.64759 -9.08574 -9.35735 -8.80515 -8.16726 -8.61414 -8.41049 
-9.56614 -9.65123 -9.97414 -7.45548 -8.22981 -8.06904 -7.33712 -6.95141 -7.10862 
-6.91593 -7.19 -7.87642 -8.38162 -8.95916 -8.87921 -5.92294 -6.36034 -7.26925 
-6.78151 -7.7568 -9.44699 -9.93625 -10.0767 -10.3447 -10.5186 -10.6024 -10.7252 
-10.7079 -11.0172 -11.2001 -11.0938 -11.1935 -11.6048 -10.8076 -10.3324 -10.8658 
-11.1882 -11.7461 -9.8582 -11.6252 -11.8643 -12.2333 -11.6948 -11.8041 -12.2195 
-11.2995 -11.5512 -11.8124 -11.9075 -11.6779 0 -0.20138 -0.473718 -0.224915 
-0.763081 -0.307128 -4.84076 -5.35094 -5.85068 -2.53564 -1.60372 -1.58514 -2.05703 
-1.68298 -4.23123 -4.71862 -3.7442 -2.47373 -2.41026 -2.83765 -3.25806 -1.20655 
-0.748896 -0.740992 0 1.38778e-17 -0.191684 -0.684375 -1.18051 -2.35329 -3.20018 
-2.70794 -2.14047 -1.57885 -1.11012 -3.76743 -3.76477 -4.73093 -4.28365 -4.49236 
-5.65592 -5.65611 -5.67181 -5.22642 -6.1481 -6.63367 -6.67145 -9.4337 -8.90869 
-9.76972 -9.56752 -9.93589 -9.06534 -8.63971 -10.3692 -10.5043 -7.77388 -7.41589 
-8.22112 -7.79868 -7.74746 -7.41974 -7.24439 -7.08549 -6.58488 -6.77798 -6.33298 
-8.35637 -8.84441 -9.37238 -9.33279 -6.29394 -7.18534 -7.69163 -6.18319 -6.6718 
-6.68445 -8.24516 -8.19379 -10.7315 -10.9205 -11.1033 -11.3812 -11.1372 -11.3124 
-10.3136 -10.6937 -9.82221 -11.3972 -11.1066 -11.6856 -10.6466 -12.1621 -11.9942 
-12.3748 -12.7304 -12.4832 -12.2919 -12.7556 -12.2104 -12.0546 -11.8069 1.38778e-17 
-1.38778e-17 -0.252832 1.38778e-17 0 -0.554924 1.38778e-17 0 -0.32828 -5.31954 
-5.80664 -1.97779 -1.18673 -1.1765 -1.48842 -4.18361 -4.6796 -5.20636 -5.17693 
-3.68486 -1.9307 -2.34253 -2.77297 -3.19027 -0.703692 2.77556e-17 -2.77556e-17 -0.202236 
-0.634381 -2.66672 -2.06558 -3.74533 -3.15986 -1.06538 -1.46086 -4.24535 -4.78128 
-5.26895 -4.7888 -4.7367 -6.14905 -5.72612 -6.16166 -6.20971 -5.75601 -6.7093 
-6.46226 -6.21966 -5.99688 -9.51358 -9.27829 -10.1704 -10.0566 -10.4627 -9.70699 
-8.7796 -8.49601 -9.2452 -8.15056 -10.7738 -10.6171 -10.9363 -7.0501 -6.69746 
-7.49077 -7.08275 -6.69121 -6.368 -6.48592 -6.0577 -5.76835 -8.73382 -9.22172 
-9.71177 -5.6944 -7.15893 -7.64684 -8.13454 -6.07258 -6.56091 -8.69521 -8.62221 
-11.1275 -11.32 -11.4882 -11.7556 -11.509 -11.4941 -11.8188 -11.5841 -11.958 
-10.2028 -10.164 -11.0745 -10.9434 -11.4308 -11.5717 -10.5814 -12.0718 -10.0909 
-12.3753 -12.6084 -12.4989 -12.865 -12.8609 -12.5762 -12.8212 -12.3844 -12.6155 
-12.6181 -12.5402 -12.0682 0 0 -0.336405 0 0 0 
-0.665794 -1.11707 -1.00009 -1.45691 -4.11878 -4.60721 -5.09607 -5.58448 -3.63118 
-1.8421 -1.3607 -2.2889 -2.69638 -3.14394 -0.309163 0 -0.17945 -0.569984 
-2.53189 -3.08838 -2.64599 -1.9559 -1.80489 -3.64652 -3.87089 -3.62705 -0.990262 
-1.39689 -4.15843 -4.68442 -5.29329 -5.79091 -5.22367 -5.19555 -6.67911 -6.25287 
-6.48079 -6.33796 -6.06581 -5.5283 -5.83291 -5.50149 -5.34564 -9.94863 -10.2531 
-10.4571 -9.46135 -9.30805 -9.08203 -8.34104 -8.5221 -8.78528 -7.91009 -10.9949 
-10.9168 -11.4234 -11.5142 -6.5884 -7.1948 -6.77611 -6.42357 -6.32107 -6.12109 
-5.63648 -5.38628 -5.32459 -5.05566 -9.20117 -9.68559 -7.04812 -7.53423 -8.01943 
-5.95864 -6.46439 -6.96289 -9.11091 -8.50652 -8.99422 -11.781 -11.8707 -12.1752 
-11.8911 -12.1649 -11.9561 -12.2224 -9.60046 -10.4567 -10.8468 -10.4082 -11.212 
-11.9823 -11.9125 -11.2531 -11.6596 -12.2065 -9.96915 -12.883 -12.9173 -13.0901 
-12.6063 -13.2539 -12.3281 -12.3865 -13.187 -12.4612 -12.6346 -12.6235 -12.7937 
-12.8042 -13.041 0 0 0 -0.639378 -0.280973 -0.831271 -0.863779 
-0.851688 -3.51948 -4.01271 -4.50121 -4.9259 -4.98353 -5.44748 -5.47231 -3.03217 
-1.80694 -1.33285 -2.18858 -1.69618 -2.65791 -2.54555 2.77556e-17 0 -1.38778e-17 
5.55112e-17 -0.525866 -2.39142 -3.02645 -3.50099 -1.92554 -1.73944 -1.2993 -4.12928 
-3.97097 -0.883186 -4.60746 -5.08206 -5.70611 -6.26718 -6.1877 -5.68105 -5.5548 
-6.29812 -6.66824 -6.19416 -6.64942 -6.6109 -5.7941 -5.70659 -5.00037 -5.20437 
-5.29852 -4.77534 -4.68993 -9.72053 -9.41426 -10.2366 -10.3362 -10.9341 -8.99045 
-9.23327 -8.06744 -7.73836 -8.36444 -8.01237 -8.59706 -7.62497 -11.4625 -12.0371 
-6.92766 -6.49178 -7.37285 -6.36302 -5.96702 -5.96876 -5.84247 -5.23132 -4.89709 
-4.83172 -4.83896 -7.48686 -7.89727 -8.37957 -5.34922 -5.83374 -6.93233 -6.31799 
-7.41549 -9.48149 -8.86017 -12.2638 -12.5853 -12.5453 -12.3336 -12.5323 -9.9428 
-10.2737 -10.734 -9.80916 -10.948 -11.5198 -12.1267 -13.0269 -12.7272 -12.8346 
-12.898 -13.0331 -12.5583 -12.6749 -12.5546 -12.9497 -12.7869 -12.6166 -12.5628 
-12.2882 -12.3325 -12.6731 -12.4365 -0.273082 -0.558571 2.77556e-17 0 -2.77556e-17 
2.77556e-17 -0.539906 -0.412149 -0.739767 -0.354365 -2.918 -3.40367 -3.88984 -4.37598 
-4.86308 -2.52395 -1.40692 -1.21084 -1.57371 -2.05856 0 -0.385968 -0.265775 
-2.32319 -2.71448 -2.8572 -3.43381 -3.93377 -2.20387 -1.18394 -1.54943 -1.70709 
-0.841003 -4.42183 -4.60165 -4.93721 -5.42679 -6.11748 -6.02993 -6.15773 -6.13781 
-6.54606 -6.35025 -5.62992 -5.77234 -5.10728 -5.18221 -4.35336 -4.17403 -4.3945 
-4.63092 -4.10944 -4.05089 -9.52203 -10.061 -10.4438 -10.1207 -10.769 -11.0406 
-8.75443 -9.08959 -8.71642 -9.28615 -7.82442 -8.28504 -8.55336 -8.07954 -11.3417 
-11.5367 -11.9424 -12.0636 -6.80722 -6.06447 -6.35939 -5.94118 -7.21594 -5.65059 
-5.53781 -5.24916 -5.13015 -4.66942 -4.60152 -4.3985 -7.27776 -7.7515 -8.21652 
-5.21844 -4.74061 -5.70095 -6.79952 -6.16531 -6.64885 -9.33738 -8.67681 -12.7267 
-12.5682 -12.707 -12.64 -12.622 -10.039 -10.4918 -9.58819 -10.7021 -11.4067 
-11.1638 -11.6488 -11.8761 -12.3539 -12.0955 -12.5133 -12.2507 -12.4264 -12.7469 
-12.6958 -11.9235 -12.3167 -12.2059 -12.3001 -11.9819 -12.1825 -12.0028 -12.151 
-11.8967 -12.0678 -11.8008 2.77556e-17 0 -2.77556e-17 5.55112e-17 2.77556e-17 0 
0 -0.281628 -0.711095 -2.77556e-17 0 -2.43213 -2.82917 -3.31785 -3.79151 
-4.26495 -2.01476 -1.09517 -1.51666 -1.38778e-17 -0.263407 0 2.77556e-17 -2.61822 
-3.31822 -3.21243 -3.77627 -2.08898 -0.658213 -1.10708 -1.49781 -1.98975 -1.32618 
-4.21275 -4.39541 -4.90207 -5.36485 -5.83535 -6.5112 -6.26027 -6.12687 -5.59953 
-6.1358 -6.20942 -5.61845 -5.07428 -4.54709 -3.89398 -3.67496 -3.49234 -4.06818 
-3.83512 -3.97786 -9.46351 -10.0264 -10.6248 -10.3759 -9.85568 -10.5594 -11.1803 
-9.03246 -9.35389 -7.59194 -8.44087 -8.02527 -7.60927 -11.6695 -12.1341 -12.3791 
-6.69499 -5.51755 -6.24703 -5.80548 -7.15021 -4.86545 -5.04804 -4.50713 -4.25408 
-4.12906 -7.14132 -7.61766 -8.14254 -5.03937 -5.50733 -4.56817 -5.97273 -6.43171 
-7.0972 -9.134 -9.09181 -8.45477 -12.5799 -12.6174 -12.3763 -12.2863 -9.89478 
-9.50076 -10.2601 -10.3002 -10.571 -10.6451 -10.9301 -11.7458 -11.6311 -11.3956 
-11.8282 -12.1053 -11.5703 -11.8783 -11.8277 -12.4034 -12.5848 -12.3491 -11.2772 
-11.6892 -11.5303 -12.1429 -11.7511 -11.708 -11.719 -11.6868 -11.3993 -11.6266 
-11.4434 -11.1667 -2.77556e-17 -2.77556e-17 5.55112e-17 -0.235127 2.77556e-17 -0.620888 -1.94595 
-2.32669 -2.07236 -2.79607 -3.2789 -3.76218 -4.09392 -1.02276 -1.46085 0 
-0.223214 -3.10516 -2.40205 -2.5342 -3.71942 -0.469158 -0.728794 -0.934886 -1.82625 
-1.58693 -0.897402 -1.22427 -3.55148 -3.97353 -4.68358 -4.17426 -5.18689 -5.63645 
-6.01975 -6.25138 -6.36474 -5.63249 -5.11649 -5.4374 -5.65196 -5.78483 -4.5536 
-3.97159 -3.97674 -4.36142 -3.59854 -3.33094 -3.18774 -3.14832 -3.38152 -2.86884 
-2.81272 -9.72435 -10.6994 -10.2251 -10.1211 -9.81823 -10.7573 -10.9256 -11.1186 
-11.2258 -8.7813 -9.28996 -8.84894 -9.71671 -7.43341 -8.38173 -7.90559 -11.6949 
-12.2417 -11.852 -6.50182 -6.96572 -5.37157 -6.02401 -5.67622 -5.58838 -4.54295 
-4.41433 -4.94966 -4.15193 -3.78958 -7.55716 -8.00714 -4.84124 -5.30072 -5.75655 
-4.3799 -6.20738 -6.88307 -8.90404 -7.77941 -8.22438 -8.67095 -12.5658 -12.1538 
-12.7143 -12.6281 -12.0346 -11.8872 -9.35279 -9.80113 -10.0146 -10.4678 -10.7942 
-10.2416 -10.9043 -11.1714 -11.9515 -11.8684 -11.6462 -11.4491 -11.3262 -11.0294 
-11.2171 -11.6591 -12.1556 -12.3115 -12.012 -12.1327 -12.1099 -10.8241 -10.9803 
-11.4054 -11.4645 -11.1028 -11.1092 -11.0984 -10.7928 -10.8222 -10.8914 -10.5414 
2.77556e-17 -0.195626 -0.510281 -0.316444 -1.34547 -1.8285 -2.18165 -1.70234 -2.66091 
-3.13938 -3.61706 -3.91519 -0.978145 -0.868156 0 0 0 -2.96518 
-3.48583 -2.14949 -2.2766 -2.86654 0 -0.420422 -0.58362 -0.251619 -1.75325 
-1.56236 -1.32395 -0.658021 -1.0763 -3.72754 -4.43648 -5.13719 -4.93987 -4.2338 
-5.59406 -5.81945 -6.43198 -6.05927 -5.83478 -5.99478 -4.56943 -5.15236 -5.54431 
-3.3489 -3.60785 -4.02679 -3.3744 -3.43125 -3.80546 -4.08513 -4.58484 -3.4601 
-3.07691 -2.74695 -3.01154 -2.96859 -2.90553 -2.26633 -2.68302 -2.74165 -10.2011 
-10.7537 -10.1106 -11.0611 -11.2218 -11.4085 -11.3267 -11.4709 -11.5198 -8.73099 
-9.1182 -8.69674 -9.60792 -9.64497 -9.8515 -7.3719 -6.91954 -8.38821 -8.26374 
-7.82564 -12.1467 -12.3352 -11.9422 -11.6681 -12.016 -6.4661 -5.14129 -5.07289 
-4.69974 -5.88537 -5.42441 -4.96252 -4.26499 -3.84677 -4.07048 -3.55657 -3.18617 
-7.33209 -4.78052 -4.33868 -5.17869 -5.58684 -6.01576 -6.65474 -9.11842 -7.54457 
-7.99033 -8.43677 -8.88411 -12.339 -11.831 -11.9664 -11.8564 -12.6798 -9.56614 
-9.78604 -10.7025 -10.0257 -10.4894 -11.0087 -11.4371 -11.9206 -10.7919 -10.3982 
-10.6431 -10.7256 -10.9903 -11.258 -11.446 -12.135 -12.109 -11.8995 -10.3798 
-11.1488 -10.8292 -11.604 -11.2489 -10.9768 -10.5023 -10.5934 -10.4865 -10.1927 
-10.2678 -9.90329 -2.77556e-17 0 -0.107359 -0.406798 6.93889e-18 0 -2.77556e-17 
-1.32091 -1.94694 -2.03477 -1.22512 -1.57205 -1.22892 -2.50715 -2.96371 -2.97887 
-3.31109 -3.44768 -3.25597 -3.71552 -0.839808 -3.29884 -1.48718 -1.85961 -2.70413 
-2.60252 -2.43159 -3.22888 2.77556e-17 2.77556e-17 -0.184222 -0.439465 -1.38778e-17 2.77556e-17 
-2.77556e-17 -0.98073 -1.36121 -3.51539 -4.14859 -4.8768 -5.39108 -4.70178 -5.77542 
-6.25271 -6.10958 -6.2143 -5.95925 -5.5831 -5.33055 -5.5645 -4.69761 -5.27846 
-2.74035 -2.78298 -3.09699 -3.52423 -4.20585 -4.88603 -2.75729 -2.48822 -2.49674 
-2.16678 -2.21189 -2.00598 -1.65439 -10.5013 -10.6289 -10.0549 -10.5371 -10.6 
-11.1745 -11.2873 -11.1411 -8.63836 -9.0465 -9.44694 -9.53121 -7.30155 -6.82569 
-6.35172 -8.15765 -7.77527 -12.1135 -12.5771 -11.8279 -11.9437 -11.7643 -11.4972 
-4.49832 -4.6493 -5.81344 -5.34526 -4.86824 -4.14327 -3.44649 -3.64822 -3.25075 
-7.0994 -4.1727 -4.62603 -5.07783 -5.52697 -5.73951 -6.43678 -6.18489 -9.33327 
-7.30444 -7.75651 -8.20489 -8.65585 -9.10903 -12.5784 -12.1764 -12.1262 -11.919 
-11.4415 -9.56563 -9.82396 -10.2926 -11.0295 -10.7646 -11.0406 -11.2438 -11.7293 
-9.73116 -10.1275 -10.0082 -10.4271 -10.1699 -10.5463 -10.2995 -10.761 -10.8825 
-11.2279 -11.6837 -10.9103 -10.5779 -10.2348 -11.0701 -10.7238 -10.3444 -10.1745 
-9.89459 -10.0333 -9.86319 -9.56772 -9.87489 -9.6176 -9.26851 0 0 
-0.371863 -1.40487 -1.86704 -0.752192 -0.629277 -1.09458 -0.942618 -2.33165 -2.79471 
-3.04713 -3.49974 -3.95217 -1.89954 -1.69452 -3.01937 -2.30276 -2.9679 -2.50564 
-3.15543 0 -6.93889e-18 -0.0432792 0 -0.375485 -0.762976 -0.858799 -1.19633 
-1.32689 -3.41179 -4.01124 -4.57383 -5.32252 -5.15125 -6.21182 -5.72876 -6.12649 
-5.90137 -5.42825 -4.97738 -5.13668 -2.15982 -2.38849 -2.8518 -2.27597 -2.57822 
-2.9552 -3.26897 -3.96652 -3.63643 -4.68213 -4.32371 -3.15669 -2.64143 -2.3699 
-2.0348 -1.67687 -1.93236 -1.60457 -1.65674 -1.77394 -1.09284 -1.45655 -10.028 
-10.157 -10.4312 -10.8367 -11.0141 -11.0634 -11.3893 -8.56853 -8.56117 -8.12197 
-8.99474 -8.76459 -9.51049 -7.23487 -6.76142 -6.27951 -7.67002 -7.60074 -12.3884 
-12.8199 -12.206 -12.2412 -11.6829 -11.8746 -11.6153 -4.0426 -4.37801 -3.95567 
-5.76815 -5.29348 -4.82547 -3.60127 -2.96131 -6.87857 -4.40101 -4.84693 -5.29399 
-5.50892 -5.9578 -6.63218 -6.40892 -7.0805 -7.53097 -8.12372 -8.48676 -8.61421 
-8.89697 -9.3584 -12.5986 -12.4953 -12.0959 -11.8242 -11.5655 -11.3494 -9.63394 