# vtk DataFile Version 4.2
3D Slicer output. SPACE=LPS
ASCII
DATASET POLYDATA
POINTS 18862 float
4.09348 -13.9272 3.77078 4.00375 -13.9063 3.69124 4.13847 -13.8962 3.67862 
3.9986 -13.9323 3.76953 4.1253 -13.9406 3.81548 4.16359 -13.924 3.77748 
4.0486 -13.8764 3.61953 3.90379 -13.9346 3.78991 3.92346 -13.9043 3.69646 
3.9421 -13.8782 3.62469 4.1736 -13.873 3.61953 4.2736 -13.8847 3.66953 
4.2236 -13.9172 3.74831 4.00859 -13.965 3.85247 4.18837 -13.9743 3.90164 
4.1236 -13.9782 3.91953 4.02948 -13.974 3.88352 4.25195 -13.9366 3.80889 
4.10359 -13.8349 3.53502 4.00387 -13.8544 3.57455 3.82588 -13.9129 3.73159 
3.77539 -13.9382 3.7853 3.83988 -13.953 3.84674 3.8736 -13.8755 3.61953 
3.9196 -13.8574 3.57073 4.1736 -13.8462 3.56953 4.2736 -13.846 3.56953 
4.28171 -13.8709 3.6277 4.28477 -13.9179 3.75448 3.8736 -13.9784 3.91953 
4.29558 -13.9969 4.01793 4.28432 -13.9674 3.90639 4.19497 -13.9984 4.01423 
4.0736 -13.9967 3.96953 4.04088 -14.0127 4.03893 3.9236 -13.994 3.96953 
3.9736 -14.0091 4.03228 4.33806 -13.9453 3.85404 4.21016 -13.8034 3.4754 
4.14153 -13.8047 3.46822 4.026 -13.8211 3.50839 3.91925 -13.8251 3.49964 
3.73198 -13.925 3.76461 3.7736 -13.8849 3.66953 3.73206 -13.9631 3.87438 
3.69952 -13.9488 3.82919 3.76855 -13.9776 3.92628 3.8236 -13.8692 3.61953 
3.82068 -13.8454 3.5747 4.3236 -13.8413 3.56953 4.38869 -13.8826 3.67351 
4.37923 -13.9069 3.7471 3.81784 -14.0008 3.9789 4.3484 -13.9715 3.9432 
4.2742 -14.0249 4.10205 4.34263 -14.0252 4.09366 4.3986 -13.9602 3.91953 
4.13273 -14.0167 4.05873 4.2239 -14.012 4.06927 4.0736 -14.0307 4.11953 
3.88839 -14.0217 4.06159 3.8486 -14.0147 4.01953 3.9736 -14.0312 4.11953 
4.4736 -13.9472 3.86953 4.47557 -13.9129 3.76694 4.25635 -13.762 3.37335 
4.3236 -13.8182 3.51953 4.1736 -13.7653 3.36953 4.0646 -13.772 3.36826 
3.9736 -13.79 3.41953 3.87185 -13.7694 3.36838 3.81432 -13.8091 3.46953 
3.8236 -13.8277 3.51953 3.6736 -13.894 3.69453 3.57154 -13.884 3.69795 
3.5736 -13.9327 3.81953 3.69327 -13.8451 3.56599 3.6529 -13.9859 3.95648 
3.54947 -13.9533 3.88567 3.5736 -13.9637 3.91953 3.70058 -14.0091 4.01953 
3.69715 -13.8231 3.5173 4.44969 -13.8606 3.62354 4.3736 -13.8091 3.49386 
3.69933 -14.0273 4.07595 3.77607 -14.0283 4.07326 4.44413 -13.9961 4.02346 
4.29707 -14.0439 4.1601 4.46047 -14.0404 4.18229 4.4236 -14.0271 4.11953 
4.38546 -14.0471 4.20791 4.4736 -13.9739 3.96953 4.2236 -14.0498 4.16953 
4.1044 -14.0505 4.17929 3.8832 -14.0367 4.14593 3.9736 -14.0491 4.16953 
4.5236 -13.9418 3.86953 4.5736 -13.9508 3.91953 4.5736 -13.9099 3.79453 
4.5236 -13.8836 3.71953 4.3236 -13.7756 3.41953 4.29281 -13.7358 3.3291 
4.1736 -13.735 3.31953 4.05473 -13.7349 3.29363 3.9736 -13.7441 3.31953 
3.81594 -13.7543 3.34624 3.8236 -13.7424 3.31953 3.7736 -13.7803 3.41953 
3.7236 -13.7997 3.46953 3.60741 -13.8492 3.59567 3.43851 -13.8845 3.71492 
3.52388 -13.9308 3.81885 3.51619 -13.8655 3.63974 3.4736 -13.99 4.01953 
3.56714 -14.0082 4.04099 3.6236 -14.0076 4.04453 3.4736 -13.926 3.81953 
3.45593 -13.9632 3.93385 3.60622 -13.8049 3.50385 4.4736 -13.8353 3.56953 
4.51958 -13.8362 3.58274 4.4236 -13.8091 3.50157 3.7736 -14.0469 4.16953 
3.6486 -14.0461 4.16953 3.6236 -14.0291 4.11953 4.5486 -13.9878 4.04453 
4.53124 -14.0144 4.12002 4.27271 -14.0594 4.21892 4.485 -14.0559 4.28211 
4.57372 -14.0293 4.22557 4.55875 -14.026 4.16811 4.41644 -14.0649 4.29453 
4.30289 -14.061 4.2532 4.5986 -13.9603 3.97033 4.1236 -14.0604 4.21953 
4.04611 -14.0801 4.25451 4.0236 -14.071 4.21953 3.95113 -14.0692 4.22969 
3.8486 -14.0638 4.21953 4.6236 -13.938 3.86953 4.7236 -13.9403 3.91953 
4.67113 -13.9085 3.79744 4.6486 -13.8733 3.71953 4.60563 -13.819 3.57057 
4.3736 -13.7591 3.3953 4.32109 -13.7168 3.29033 4.24672 -13.7087 3.27077 
4.11017 -13.7061 3.24615 3.93947 -13.7181 3.25285 3.67418 -13.7735 3.41952 
3.75874 -13.7246 3.26988 3.67098 -13.741 3.32029 3.87094 -13.7139 3.25335 
3.54354 -13.8406 3.57581 3.37326 -13.8978 3.76474 3.37258 -13.8627 3.66953 
3.44822 -13.8568 3.63679 3.41491 -13.9968 4.06371 3.5236 -14.0164 4.06953 
3.5236 -14.0468 4.19453 3.3736 -13.9254 3.86953 3.3736 -13.9092 3.80477 
3.36851 -13.9576 3.96062 3.60153 -13.7591 3.40697 3.5236 -13.813 3.51953 
4.55852 -13.8022 3.51948 4.4236 -13.7715 3.41953 4.4986 -13.7815 3.46953 
3.7236 -14.0591 4.21996 3.62131 -14.057 4.21688 4.5736 -13.9914 4.06953 
4.69485 -13.9869 4.06573 4.67153 -14.0301 4.2144 4.66178 -14.0091 4.11953 
4.24894 -14.0736 4.31136 4.4986 -14.077 4.36953 4.62433 -14.0302 4.22351 
4.6236 -14.0693 4.36953 4.41735 -14.0944 4.41706 4.35575 -14.0686 4.32502 
4.76197 -13.9636 4.01631 4.11953 -14.0876 4.32167 4.02318 -14.1035 4.42023 
3.95392 -14.0926 4.34508 3.8877 -14.0839 4.27121 3.79453 -14.0775 4.26999 
4.72426 -13.9123 3.82017 4.7736 -13.9317 3.91953 4.7236 -13.8651 3.71953 
4.66648 -13.8285 3.59604 4.6236 -13.7759 3.46953 4.70381 -13.8051 3.52722 
4.48849 -13.7465 3.37761 4.4736 -13.6939 3.26953 4.3736 -13.6697 3.19674 
4.30545 -13.6688 3.19011 4.22557 -13.6924 3.22018 4.11723 -13.6683 3.16522 
4.0196 -13.665 3.16035 3.91987 -13.6616 3.15443 3.64159 -13.709 3.26564 
3.78658 -13.6716 3.18746 3.69074 -13.6885 3.2276 3.52135 -13.732 3.32725 
3.51391 -13.7002 3.27347 3.2736 -13.8833 3.76953 3.1986 -13.8751 3.76953 
3.26172 -13.8409 3.66275 3.32792 -13.8294 3.60586 3.44865 -13.8046 3.5113 
3.44055 -14.0257 4.13391 3.34012 -14.0051 4.11374 3.21316 -13.9685 4.05641 
3.45047 -14.0614 4.30573 3.4261 -14.0493 4.2364 3.5736 -14.08 4.31953 
3.27741 -13.9121 3.84744 3.2736 -13.9433 3.94453 3.4736 -13.7638 3.41953 
4.57348 -13.7416 3.37956 3.67967 -14.0865 4.30209 3.64118 -14.0994 4.34933 
4.7736 -13.996 4.11953 4.8744 -13.9747 4.06507 4.75773 -14.0488 4.30725 
4.7736 -14.0204 4.21953 4.67432 -14.0581 4.31903 4.7736 -14.0058 4.16953 
4.29179 -14.0875 4.3794 4.21102 -14.094 4.40654 4.6486 -14.0774 4.41954 
4.53681 -14.0907 4.43676 4.4736 -14.0986 4.46953 4.46194 -14.1073 4.51942 
4.3236 -14.0988 4.41954 4.881 -13.9338 3.95548 4.1736 -14.1016 4.44453 
4.10488 -14.113 4.46842 3.97491 -14.1207 4.48146 3.8868 -14.1032 4.41087 
3.8486 -14.0924 4.31953 3.70661 -14.0882 4.31988 4.7736 -13.9092 3.84675 
4.7736 -13.8787 3.76953 4.83402 -13.902 3.85852 4.7498 -13.8273 3.61841 
4.77524 -13.8538 3.71261 4.7236 -13.7466 3.41953 4.7236 -13.7761 3.46953 
4.6236 -13.752 3.41953 4.78135 -13.7987 3.53341 4.6149 -13.7015 3.30198 
4.5236 -13.6716 3.21953 4.4236 -13.6592 3.1853 4.39167 -13.6274 3.11744 
4.3236 -13.6039 3.06953 4.2486 -13.6091 3.07288 4.21425 -13.6484 3.14055 
4.03346 -13.6032 3.05859 3.9736 -13.6115 3.06953 3.82453 -13.6065 3.06767 
3.8486 -13.6389 3.11953 3.61577 -13.6333 3.14345 3.52695 -13.6739 3.22004 
3.72054 -13.6415 3.13394 3.4236 -13.7389 3.36953 3.4236 -13.7109 3.31953 
3.4736 -13.6647 3.21953 3.16795 -13.8292 3.66628 3.08255 -13.856 3.78634 
3.1236 -13.8417 3.71953 3.17156 -13.9246 3.92056 3.09694 -13.8907 3.88213 
3.27204 -13.7994 3.54453 3.18565 -13.8067 3.61114 3.3236 -13.7673 3.4504 
3.36831 -13.7398 3.37776 3.32208 -14.0261 4.2218 3.25326 -14.0014 4.14426 
3.14816 -13.9838 4.16644 3.11463 -13.9553 4.06356 3.18135 -13.9359 3.96507 
3.46816 -14.1001 4.46853 3.53167 -14.0948 4.39791 3.3736 -14.0828 4.41954 
3.3736 -14.0545 4.29564 3.31505 -14.0435 4.2865 3.57342 -14.1027 4.41882 
3.729 -14.1014 4.41565 3.6486 -14.1067 4.43751 4.87894 -13.9958 4.17752 
4.89781 -13.9817 4.10056 4.98257 -13.9685 4.09453 4.9736 -13.9433 4.01953 
4.8236 -14.0556 4.36953 4.8236 -14.0266 4.26953 4.75137 -14.0638 4.41699 
4.28732 -14.1057 4.44085 4.6986 -14.0794 4.46953 4.59386 -14.0967 4.53909 
4.50194 -14.1299 4.64663 4.38337 -14.1293 4.59851 4.334 -14.1093 4.51985 
4.92067 -13.9229 3.92166 4.18618 -14.1301 4.58405 4.07461 -14.1312 4.53525 
4.13142 -14.1329 4.58886 3.85075 -14.123 4.50635 3.8986 -14.1352 4.56953 
3.95046 -14.1354 4.57948 4.05686 -14.1396 4.59666 3.81687 -14.105 4.4184 
4.91124 -13.8782 3.76902 4.8736 -13.8395 3.66953 4.9236 -13.8027 3.56953 
4.91986 -13.856 3.71829 4.7736 -13.7422 3.41953 4.7736 -13.7702 3.46953 
4.7236 -13.7092 3.3289 4.86752 -13.7881 3.51801 4.71692 -13.6545 3.22119 
4.63056 -13.6608 3.22051 4.5236 -13.618 3.11953 4.5736 -13.6371 3.16953 
4.54764 -13.5965 3.08009 4.42409 -13.5906 3.04428 4.3236 -13.5591 2.99513 
4.2736 -13.5713 3.01953 4.19514 -13.5776 3.01993 4.02721 -13.5485 2.95826 
3.97917 -13.5361 2.93093 3.90199 -13.5706 2.99282 3.7236 -13.6013 3.06953 
3.77577 -13.5459 2.97353 3.7236 -13.541 2.96953 3.6236 -13.5902 3.06953 
3.56864 -13.6253 3.13472 3.45187 -13.6157 3.1413 3.4073 -13.6592 3.21953 
3.3373 -13.6108 3.14391 3.06859 -13.7973 3.61561 3.17174 -13.7858 3.56122 
3.08185 -13.7812 3.57241 2.96392 -13.8323 3.788 2.9736 -13.8129 3.71953 
2.99987 -13.8807 3.92878 2.95933 -13.8591 3.89453 2.94126 -13.8413 3.84491 
3.06032 -13.9143 3.99561 3.25885 -13.7432 3.42202 3.2986 -13.7135 3.34453 
3.22963 -14.0339 4.26692 3.21974 -14.0112 4.20184 3.11307 -13.9997 4.23499 
2.9736 -13.9592 4.20227 2.99679 -13.9384 4.10902 3.0236 -13.9331 4.06953 
3.47439 -14.1116 4.56157 3.37859 -14.1086 4.52406 3.3262 -14.1013 4.51569 
3.25408 -14.0728 4.43383 3.29759 -14.0591 4.36953 3.13346 -14.0375 4.39438 
3.15943 -14.0317 4.33382 3.5986 -14.1211 4.51954 3.7236 -14.1165 4.46953 
4.97216 -14.007 4.23604 4.9236 -14.0258 4.29453 4.9736 -13.9902 4.16953 
5.06679 -13.9452 4.06181 4.9236 -14.0441 4.36953 4.88457 -14.0674 4.42812 
4.7986 -14.0745 4.45704 4.28339 -14.1272 4.59687 4.70613 -14.0907 4.53976 
4.67476 -14.1146 4.6183 4.5736 -14.1183 4.61953 4.5736 -14.1381 4.71953 
4.66197 -14.1282 4.69348 4.48616 -14.1395 4.73968 4.427 -14.1364 4.72346 
4.36356 -14.1392 4.66507 4.31191 -14.1282 4.60092 4.9829 -13.9146 3.89583 
5.04237 -13.9191 3.93839 4.19577 -14.149 4.6682 4.2236 -14.1358 4.61953 
4.11393 -14.1534 4.71659 3.7236 -14.1246 4.51954 3.75266 -14.1346 4.59325 
3.83124 -14.1422 4.65259 3.90003 -14.1489 4.6863 3.8736 -14.1435 4.66954 
3.99461 -14.1523 4.65859 4.9986 -13.8724 3.80081 4.9736 -13.8481 3.71953 
4.9736 -13.8091 3.62436 5.0235 -13.7852 3.57327 4.97074 -13.7775 3.5176 
[...]
POINT_DATA 18862
SCALARS scalars float
LOOKUP_TABLE default
-2.03211 -2.12797 -1.99828 -2.12346 -1.99311 -1.96332 -2.08874 -2.20766 -2.20397 
-2.19096 -1.96803 -1.86772 -1.91044 -2.09559 -1.91444 -1.96949 -2.06787 -1.87522 
-2.03908 -2.1334 -2.29345 -2.33058 -2.25335 -2.25727 -2.21589 -1.9692 -1.87358 
-1.86297 -1.85132 -2.20233 -1.78144 -1.82267 -1.87569 -2.00269 -2.01234 -2.14161 
-2.07643 -1.7842 -1.93936 -2.00659 -2.11471 -2.21985 -2.3757 -2.34893 -2.34719 
-2.39009 -2.2982 -2.30433 -2.30853 -1.82473 -1.7571 -1.76027 -2.23802 -1.7525 
-1.77763 -1.71791 -1.7114 -1.9213 -1.83276 -1.95745 -2.14756 -2.19776 -2.05012 
-1.65447 -1.66732 -1.90439 -1.82718 -1.9848 -2.09081 -2.17296 -2.27564 -2.32266 
-2.30996 -2.44375 -2.54041 -2.50967 -2.43336 -2.39762 -2.51389 -2.48146 -2.33502 
-2.43208 -1.70141 -1.78184 -2.31951 -2.24903 -1.6432 -1.74005 -1.58246 -1.63534 
-1.64302 -1.62939 -1.80521 -1.91161 -2.12581 -2.03566 -1.60688 -1.54835 -1.5691 
-1.62223 -1.83469 -1.87262 -1.98794 -2.10682 -2.18147 -2.3306 -2.32571 -2.36428 
-2.40883 -2.51373 -2.66331 -2.55658 -2.59982 -2.54536 -2.45249 -2.39842 -2.60331 
-2.58737 -2.51913 -1.68088 -1.63547 -1.73306 -2.22107 -2.33747 -2.37571 -1.53889 
-1.53451 -1.74462 -1.5278 -1.46182 -1.49519 -1.58759 -1.70517 -1.51169 -1.88156 
-1.94409 -1.97556 -2.03874 -2.13651 -1.5136 -1.40857 -1.47722 -1.50182 -1.55174 
-1.78796 -1.84973 -1.92276 -2.05762 -2.22213 -2.45956 -2.39421 -2.47305 -2.28715 
-2.57704 -2.71214 -2.7354 -2.66508 -2.58645 -2.48462 -2.44584 -2.68199 -2.70073 
-2.6604 -2.5297 -2.59902 -1.60056 -1.73887 -1.66081 -2.252 -2.34815 -1.50841 
-1.39906 -1.37792 -1.41555 -1.73641 -1.48859 -1.41707 -1.37398 -1.549 -1.63282 
-1.3494 -1.8542 -1.91132 -1.99975 -2.08533 -2.17129 -1.42453 -1.3606 -1.4293 
-1.493 -1.54179 -1.46407 -1.67988 -1.70508 -1.81105 -1.87678 -1.95058 -2.06115 
-2.15477 -2.25097 -2.50573 -2.37407 -2.4617 -2.61582 -2.62705 -2.80395 -2.87451 
-2.84163 -2.78231 -2.67192 -2.54179 -2.64081 -2.77624 -2.47829 -2.52324 -2.3605 
-2.77871 -2.75385 -2.65342 -1.59835 -2.26834 -2.28969 -1.31196 -1.23558 -1.27175 
-1.28233 -1.34421 -1.29663 -1.67565 -1.74137 -1.33519 -1.43277 -1.47998 -1.47458 
-1.6345 -1.25356 -1.76379 -1.8207 -1.93746 -2.04079 -2.10613 -2.23738 -1.37219 
-1.37817 -1.31175 -1.41093 -1.37891 -1.45082 -1.44872 -1.54553 -1.38898 -1.56692 
-1.66507 -1.76446 -1.8048 -1.87647 -1.94737 -1.97079 -2.15402 -2.20994 -2.35241 
-2.32309 -2.54198 -2.61977 -2.44379 -2.70568 -2.70917 -2.67044 -2.92992 -2.97837 
-2.95826 -2.85648 -2.9371 -2.83995 -2.91801 -2.79643 -2.75867 -2.62354 -2.71198 
-2.80228 -2.86586 -2.83369 -2.41097 -2.37481 -2.51418 -2.55302 -2.61 -2.32967 
-2.18555 -2.25368 -1.19745 -1.20446 -1.12806 -1.15372 -1.19207 -1.2212 -1.24073 
-1.66145 -1.27252 -1.34559 -1.39795 -1.52269 -1.59152 -1.2243 -1.70859 -1.82849 
-1.75785 -2.04434 -1.98016 -1.92872 -1.82511 -2.10337 -1.25175 -1.29124 -1.25242 
-1.24562 -1.40322 -1.40063 -1.46154 -1.30956 -1.48073 -1.56243 -1.67878 -1.62309 
-1.66258 -1.78648 -1.88792 -1.93054 -2.00566 -2.17597 -2.22679 -2.29012 -2.44836 
-2.41194 -2.46233 -2.54333 -2.58824 -2.69914 -2.73428 -2.80966 -3.03142 -2.93459 
-3.02118 -3.08942 -3.09963 -3.01377 -3.06206 -3.09393 -2.93685 -2.86022 -2.82799 
-2.69594 -2.72514 -2.8137 -2.95366 -2.9613 -2.94858 -2.37523 -2.47715 -2.52829 
-2.62056 -2.59999 -2.74424 -2.73949 -2.27435 -2.1742 -1.09742 -1.1236 -1.11562 
-1.05845 -1.10083 -1.11983 -1.18678 -1.6143 -1.24293 -1.24853 -1.34003 -1.30915 
-1.23636 -1.38167 -1.44056 -1.51947 -1.58693 -1.17243 -1.10993 -1.67413 -1.6629 
-1.73373 -2.15829 -2.10763 -2.01555 -1.94127 -1.97066 -1.86357 -1.16401 -1.1936 
-1.19796 -1.15481 -1.21207 -1.23841 -1.28883 -1.4186 -1.41863 -1.43646 -1.48895 
-1.59293 -1.64761 -1.74345 -1.77373 -1.92568 -2.05935 -2.18662 -2.24631 -2.28472 
-2.35526 -2.41352 -2.56532 -2.49402 -2.57435 -2.64522 -2.64152 -2.77011 -2.86856 
-2.88531 -3.14411 -3.12427 -2.93769 -3.0312 -3.19152 -3.22028 -3.12872 -3.1243 
-3.03873 -3.17471 -2.94322 -2.90688 -2.88605 -3.01155 -3.0393 -2.37462 -2.30202 
-2.45125 -2.51935 -2.59867 -2.66243 -2.71413 -2.81142 -2.84485 -2.87068 -2.22589 
-1.03757 -1.03795 -0.987226 -1.03668 -0.955084 -0.981182 -1.04172 -1.01634 -1.04521 
-1.18029 -1.59122 -1.10651 -1.1771 -1.18321 -1.26736 -1.12118 -1.36137 -1.43726 
-1.51064 -1.08572 -1.00736 -1.63188 -1.7085 -1.85519 -1.74525 -1.7823 -2.0739 
-2.17239 -1.96894 -1.8305 -1.08955 -1.14721 -1.07453 -1.08551 -1.06255 -1.06385 
-1.14536 -1.16953 -1.23333 -1.36023 -1.35053 -1.34025 -1.51896 -1.41956 -1.46478 
-1.61412 -1.71944 -1.79583 -1.8633 -1.91095 -1.98651 -2.1445 -2.21576 -2.15534 
-2.25321 -2.3084 -2.34508 -2.37852 -2.45125 -2.63833 -2.61233 -2.49919 -2.63082 
-2.61743 -2.72159 -2.83364 -2.91529 -3.00175 -2.98708 -3.21082 -3.25269 -3.10319 
-3.15442 -3.03705 -3.24125 -3.27464 -3.26381 -3.33952 -3.10915 -3.07337 -3.18055 
-3.20651 -2.9914 -2.96077 -2.9909 -3.1194 -3.17663 -2.34274 -2.18752 -2.26136 
-2.42668 -2.51276 -2.75226 -2.63217 -2.71291 -2.81089 -2.86669 -2.96304 -0.980674 
-0.947957 -0.941705 -0.912478 -0.897943 -0.938306 -0.889993 -0.929633 -0.984783 -1.08951 
-1.55045 -0.992532 -1.00379 -1.08415 -1.11165 -1.15116 -1.24829 -1.00783 -1.035 
-1.03906 -1.41407 -1.45089 -0.946403 -0.991711 -0.910159 -1.56778 -1.65195 -1.66057 
-1.76715 -1.81175 -1.99844 -2.12603 -2.04774 -1.89099 -1.05673 -0.998586 -1.01351 
-0.985461 -1.04997 -1.12713 -1.12102 -1.17384 -1.26451 -1.29936 -1.28712 -1.3438 
-1.51333 -1.43554 -1.38719 -1.53656 -1.63488 -1.72463 -1.78627 -1.84886 -1.92807 
-1.99376 -2.06025 -2.19138 -2.12616 -2.33363 -2.37039 -2.44295 -2.49429 -2.68547 
-2.70319 -2.62913 -2.69047 -2.74909 -2.80438 -2.90001 -2.96291 -3.06466 -3.05325 
-3.04001 -3.26551 -3.36567 -3.37598 -3.23159 -3.33781 -3.08074 -3.18614 -3.29092 
-3.33223 -3.39972 -3.35015 -3.29927 -3.41693 -3.24489 -3.0767 -3.15581 -3.03995 
-3.16202 -2.32589 -2.35941 -2.19132 -2.24148 -2.45873 -2.57996 -2.68185 -2.76703 
-2.84018 -2.87809 -2.93559 -2.92289 -2.99249 -0.835894 -0.878992 -0.829565 -0.80547 
-0.794155 -0.803331 -0.859008 -0.891526 -0.808903 -0.903182 -0.898352 -0.941757 -1.47548 
-1.52177 -0.891714 -1.01885 -1.08751 -1.12082 -1.20541 -1.28931 -0.956212 -0.898881 
-0.91429 -1.39736 -0.892073 -0.921127 -0.784455 -0.794914 -1.53753 -1.6241 -1.7784 
-1.92196 -2.10873 -2.1784 -2.01595 -1.84664 -1.01139 -0.825185 -0.925627 -0.865193 
-0.871944 -0.866111 -0.97219 -0.970308 -1.03391 -1.08615 -1.07554 -1.02959 -1.21337 
-1.21016 -1.26484 -1.44 -1.3354 -1.54473 -1.61979 -1.71572 -1.7979 -1.83369 
-1.92548 -1.94667 -2.04076 -2.11093 -2.21465 -2.24796 -2.38937 -2.41907 -2.4702 
-2.77318 -2.77792 -2.62911 -2.70488 -2.86022 -2.95067 -3.02011 -3.14593 -3.14871 
-3.09172 -3.125 -3.42134 -3.4159 -3.4358 -3.22164 -3.3237 -3.44526 -3.41745 
-3.45328 -3.5507 -3.46155 -3.40043 -3.33601 -3.38744 -3.33924 -3.31829 -3.15875 
-3.09508 -3.17038 -2.34928 -2.31654 -2.20767 -2.3928 -2.44989 -2.54524 -2.59893 
-2.73742 -2.63672 -2.69363 -2.91352 -2.95685 -2.89274 -2.76439 -2.99876 -2.99935 
-0.804159 -0.713099 -0.752932 -0.6836 -0.740223 -0.69704 -0.732979 -0.714697 -0.816632 
-0.794709 -0.823187 -0.787492 -0.870506 -1.44286 -1.47467 -0.874867 -0.78556 -1.06759 
-0.880571 -0.997169 -1.15568 -1.21569 -1.28855 -1.31233 -0.81895 -0.788385 -0.81491 
-1.41188 -0.797921 -0.733189 -0.669402 -0.751001 -1.45937 -1.64497 -1.48736 -1.58273 
-1.75619 -1.79885 -1.94795 -2.04655 -2.07932 -1.88994 -0.734639 -0.838653 -0.81256 
-0.741071 -0.81169 -0.86769 -0.886272 -0.896987 -0.882362 -0.991684 -0.960461 -1.01626 
-1.12278 -1.13467 -1.13962 -1.19904 -1.26142 -1.30288 -1.41373 -1.4863 -1.54498 
-1.62818 -1.65723 -1.72558 -1.76017 -1.88106 -1.99408 -2.06075 -2.12788 -2.1454 
-2.20753 -2.26864 -2.34562 -2.4171 -2.49516 -2.5443 -2.82229 -2.86224 -2.79326 
-2.85657 -2.65964 -2.71492 -2.71159 -2.96391 -3.02018 -3.0666 -3.26357 -3.19872 
-3.25206 -3.24867 -3.17982 -3.53263 -3.56394 -3.48023 -3.26428 -3.42421 -3.47622 
-3.33485 -3.43431 -3.52474 -3.57315 -3.55783 -3.50391 -3.66791 -3.57392 -3.53857 
-3.49773 -3.41046 -3.42222 -3.41224 -3.32621 -3.14016 -3.10099 -3.24139 -2.27182 
-2.35389 -2.17067 -2.19927 -2.47405 -2.57359 -2.59983 -2.67805 -2.73484 -2.98292 
-2.99102 -3.02275 -2.80331 -2.87404 -0.558618 -0.608183 -0.664139 -0.70489 -0.627146 
-0.680264 -0.625187 -0.627147 -0.765085 -0.814534 -0.716708 -0.74936 -1.04322 -1.11706 
-0.86445 -0.763819 -0.931136 -1.04337 -1.17804 -1.29973 -1.36027 -0.748014 -0.736236 
-0.719917 -0.691814 -0.572794 -0.571472 -1.35816 -1.37003 -1.69028 -1.50914 -1.52908 
-1.62874 -1.82432 -1.81352 -2.0313 -1.92876 -2.13774 -0.700961 -0.712563 -0.64802 
-0.656743 -0.7187 -0.773517 -0.814394 -0.889591 -0.925105 -0.912754 -0.969479 -1.04046 
-1.01896 -1.12361 -1.22178 -1.33776 -1.36678 -1.46036 -1.47378 -1.53859 -1.58719 
-1.69142 -1.73917 -1.87169 -1.9735 -2.03845 -2.12546 -2.16107 -2.26622 -2.33104 
-2.45068 -2.55725 -2.64545 -2.94539 -2.81609 -2.86434 -2.90116 -2.74127 -2.80757 
-3.01241 -3.18746 -3.02201 -3.18453 -3.3062 -3.40371 -3.3008 -3.22526 -3.39643 
-3.30709 -3.28839 -3.56218 -3.62433 -3.68515 -3.51162 -3.61068 -3.38649 -3.46777 
-3.65787 -3.65642 -3.57722 -3.56238 -3.73197 -3.72302 -3.61365 -3.66043 -3.77487 
-3.50477 -3.47605 -3.35929 -3.44775 -3.21223 -3.09894 -3.32963 -2.36427 -2.23326 
-2.29761 -2.41911 -2.46482 -2.51142 -2.67925 -2.5712 -2.77045 -2.97419 -3.02554 
-3.10433 -3.04422 -2.88111 -2.89801 -0.501864 -0.452344 -0.587332 -0.481649 -0.518557 
-0.616695 -0.584418 -0.536876 -0.536956 -0.536105 -0.587182 -0.715249 -0.695599 -0.677715 
-0.599337 -1.07345 -1.11387 -0.750505 -0.810902 -0.867792 -0.909391 -0.884173 -1.01094 
-1.07003 -1.15595 -1.24585 -1.28885 -0.689272 -0.672308 -0.644355 -0.644554 -0.532243 
-0.531918 -0.589076 -0.516319 -1.24745 -1.38799 -1.73038 -1.50687 -1.45523 -1.58807 
-1.96525 -1.95382 -1.88455 -1.99704 -2.10713 -2.22888 -0.662749 -0.591097 -0.570687 
-0.476548 -0.667212 -0.733969 -0.738544 -0.766784 -0.807849 -0.820331 -0.7633 -0.767282 
-0.873768 -0.987645 -0.968292 -1.03738 -1.08994 -1.14495 -1.25356 -1.26402 -1.40703 
-1.44222 -1.49363 -1.59613 -1.70193 -1.83198 -1.97848 -1.85171 -2.11069 -2.0452 
-2.16665 -2.35791 -2.25943 -2.19332 -2.46306 -2.61227 -2.53536 -2.95823 -2.94859 
-2.68711 -2.78265 -2.78537 -2.87994 -3.32659 -3.24189 -3.0785 -3.16379 -3.29076 
-3.26848 -3.50029 -3.45786 -3.37628 -3.37291 -3.77018 -3.69077 -3.74558 -3.56037 
-3.61225 -3.6564 -3.61315 -3.72741 -3.66374 -3.5763 -3.78337 -3.82255 -3.8027 
-3.86246 -3.75781 -3.8696 -3.94743 -3.87886 -3.57979 -3.51587 -3.43961 -3.46245 
-3.26389 -3.31973 -3.15239 -3.39843 -2.35904 -2.31926 -2.46505 -2.51158 -2.65017 
-2.72837 -2.48602 -2.55208 -2.63747 -2.84802 -3.03967 -2.9486 -3.11952 -3.19283 
-3.13089 -3.22239 -0.373239 -0.531981 -0.407379 -0.336522 -0.394344 -0.422372 -0.436177 
-0.414852 -0.479362 -0.493975 -0.544939 -0.624323 -0.637156 -0.589448 -0.49734 -0.717566 
-0.711971 -0.73239 -0.824446 -0.870272 -0.946912 -0.961559 -1.01886 -1.15777 -1.18486 
-0.599681 -0.588995 -0.536112 -0.476691 -0.454013 -0.440527 -0.493298 -0.423541 -1.21658 
-1.32127 -1.38576 -1.73724 -1.83594 -1.39974 -1.55185 -1.6007 -1.69203 -1.93809 
-2.03043 -2.07852 -2.18681 -2.23388 -2.31857 -0.554961 -0.491046 -0.327871 -0.391495 
-0.422208 -0.559835 -0.646269 -0.633523 -0.580618 -0.598199 -0.653584 -0.751859 -0.677957 
-0.581179 -0.730672 -0.792261 -0.870403 -0.949218 -1.02812 -1.04926 -1.18895 -1.10699 
-1.17819 -1.28787 -1.31843 -1.4237 -1.45823 -1.53853 -1.59977 -1.69227 -1.74092 
-1.99737 -1.92221 -1.84567 -1.76606 -2.11349 -2.0566 -2.37214 -2.23147 -2.4532 
-2.53716 -2.62321 -2.66699 -3.01532 -2.97598 -3.08399 -2.88589 -2.74089 -2.87067 
-2.75446 -2.96597 -3.41157 -3.38955 -3.34673 -3.16693 -3.33898 -3.26467 -3.41255 
-3.55488 -3.51267 -3.47806 -3.78104 -3.81937 -3.85524 -3.81866 -3.80185 -3.64175 
-3.68784 -3.6207 -3.69548 -3.69979 -3.78128 -3.66927 -3.85479 -3.86312 -3.79162 
-3.83824 -3.90744 -3.9285 -3.93248 -3.93316 -4.06438 -3.98254 -4.1081 -4.02893 
-3.93478 -3.61772 -3.54455 -3.6389 -3.50133 -3.51403 -3.33459 -3.28055 -3.41319 
-2.39131 -2.66418 -2.75699 -2.8237 -2.51969 -2.37513 -2.54476 -2.87695 -3.00608 
-3.09891 -2.9114 -3.17605 -3.16118 -3.24801 -0.301813 -0.300367 -0.301905 -0.190385 
-0.194394 -0.183989 -0.268785 -0.398325 -0.28807 -0.372743 -0.351621 -0.380683 -0.460366 
-0.556436 -0.531977 -0.409337 -0.484076 -0.39834 -0.619537 -0.685005 -0.64882 -0.658461 
-0.754854 -0.814224 -0.899901 -1.08605 -1.04214 -1.1537 -0.484733 -0.555971 -0.442805 
-0.400921 -0.35356 -0.337269 -0.280179 -1.29712 -1.26779 -1.68269 -1.77534 -1.89792 
-1.35753 -1.55304 -1.66459 -1.99264 -2.00191 -2.09444 -2.14296 -2.20249 -2.29413 
-0.422277 -0.190155 -0.272339 -0.267283 -0.357415 -0.277242 -0.486797 -0.450179 -0.484694 
-0.502825 -0.588723 -0.527325 -0.475197 -0.61186 -0.645381 -0.736018 -0.861879 -0.870515 
-0.906603 -1.0032 -1.06588 -1.01247 -1.16417 -1.11806 -1.07146 -1.14511 -1.257 
-1.25183 -1.3586 -1.34942 -1.44191 -1.49765 -1.51135 -1.64472 -1.98458 -1.84303 
-1.90818 -1.74097 -1.6105 -2.14418 -2.0792 -2.03685 -2.37417 -2.28274 -2.19758 
-2.51538 -2.61317 -2.6723 -3.09473 -3.04113 -2.91563 -2.7573 -3.08173 -3.55405 
-3.61302 -3.48863 -3.47422 -3.42889 -3.23416 -3.42975 -3.33296 -3.48208 -3.54875 
-3.90015 -3.87683 -3.86916 -3.76317 -3.71774 -3.6332 -3.83412 -3.75764 -3.85124 
-3.7168 -3.79067 -3.89177 -4.01659 -3.9898 -3.97907 -3.98145 -3.98223 -4.01119 
-4.10817 -4.15023 -4.1676 -4.01318 -4.24738 -4.12094 -4.09455 -3.72285 -3.60848 
-3.679 -3.6658 -3.57152 -3.47174 -3.56641 -3.65778 -3.38903 -3.32516 -3.36855 
-2.60333 -2.69473 -2.79735 -2.87427 -2.48236 -2.55443 -2.29149 -2.38112 -2.9414 
-3.01864 -3.25417 -3.25981 -3.08975 -3.17059 -0.195721 -0.240299 -0.21286 -0.363925 
-0.103555 -0.0674932 -0.104681 -0.154251 -0.128031 -0.0769011 -0.183894 -0.163082 -0.130975 
-0.19607 -0.28278 -0.303501 -0.327617 -0.350819 -0.345132 -0.585531 -0.590761 -0.608512 
-0.711846 -0.725656 -0.557255 -0.785273 -0.825792 -0.879883 -0.948446 -0.991779 -1.11973 
-1.21352 -0.460379 -0.449369 -0.349314 -0.291345 -0.29261 -0.193256 -0.220917 -0.254579 
-1.33508 -1.82969 -1.94862 -1.85483 -1.41954 -1.50285 -1.63149 -1.72304 -1.91571 
-2.00712 -2.19464 -2.19275 -0.313727 -0.126254 -0.125674 -0.18886 -0.172099 -0.192834 
-0.260152 -0.4188 -0.364714 -0.401918 -0.444311 -0.495773 -0.373121 -0.407136 -0.497011 
-0.668895 -0.758705 -0.80183 -0.872131 -0.920294 -0.978792 -0.980206 -1.04331 -1.13419 
-1.07161 -1.20135 -1.26619 -1.43238 -1.36959 -1.32608 -1.61792 -1.53296 -1.95014 
-1.76416 -1.77241 -1.81268 -1.88924 -1.67439 -2.1306 -2.11601 -2.04371 -2.40019 
-2.30362 -2.21251 -2.45816 -2.52607 -2.59239 -2.66112 -2.69858 -3.15293 -3.24721 
-3.14786 -3.0371 -2.84256 -2.92103 -2.99637 -2.73658 -3.67943 -3.59892 -3.69465 
-3.56647 -3.55299 -3.39018 -3.46581 -3.4953 -3.29934 -3.58512 -3.58713 -3.93017 
-3.94513 -3.99747 -3.72662 -3.7757 -3.88717 -3.92057 -3.85621 -4.04513 -3.98603 
-3.9068 -3.83974 -4.09874 -4.04399 -4.11965 -4.0737 -3.95613 -4.03226 -4.07779 
-4.11156 -4.01704 -4.06842 -4.14206 -4.20192 -4.21763 -4.24116 -4.27731 -4.29747 
-4.25575 -4.16137 -3.77866 -3.71636 -3.51453 -3.41988 -3.61876 -3.72874 -3.78601 
-3.3479 -3.44658 -2.61737 -2.66154 -2.73844 -2.77961 -2.88272 -2.46865 -2.62168 
-2.49624 -2.36818 -2.21868 -3.0464 -3.33606 -3.25247 -3.16056 -3.27796 -0.166776 
-0.201001 -0.130339 -0.292889 -0.0464367 -0.00683185 -0.0292244 -0.0476326 -0.0190675 -0.092506 
-0.0165466 -0.102293 -0.0930579 -0.0264694 -0.0648698 -0.12647 -0.229163 -0.232562 -0.233968 
-0.267185 -0.470947 -0.525546 -0.555686 -0.595178 -0.668542 -0.43993 -0.784536 -0.827085 
-0.843476 -0.873863 -1.03727 -0.993411 -1.08427 -1.19963 -0.381362 -0.241332 -0.170941 
-0.138155 -0.161133 -1.29087 -1.80667 -1.85078 -1.34719 -1.45094 -1.55504 -1.61143 
-1.6568 -1.93968 -2.0473 -2.15609 -0.215241 -0.336959 -0.05958 -0.105925 -0.0545893 
-0.0335932 -0.127116 -0.0887215 -0.155229 -0.300289 -0.305293 -0.317028 -0.300125 -0.312424 
-0.410745 -0.284381 -0.535862 -0.474835 -0.645883 -0.720913 -0.796344 -0.864284 -0.927575 
-0.907594 -0.884156 -1.02295 -0.976261 -1.1186 -1.06166 -1.19406 -1.22879 -1.25336 
-1.4203 -1.47982 -1.33346 -1.575 -1.66254 -2.032 -1.73633 -1.67218 -1.77431 
-1.81997 -1.9042 -2.10609 -2.20268 -2.36212 -2.31374 -2.42899 -2.36128 -2.51099 
-2.57752 -2.66867 -2.72453 -3.27276 -3.18614 -3.1355 -3.18152 -2.8163 -2.88893 
-3.03328 -3.10584 -3.78526 -3.80076 -3.70619 -3.64232 -3.42962 -3.47067 -3.57157 
-3.64996 -3.64858 -3.67988 -4.09448 -3.84875 -3.86292 -3.98688 -4.17244 -4.08411 
-4.05212 -3.87376 -4.12966 -4.183 -4.25908 -4.11018 -3.97648 -4.07565 -4.19449 
-4.24987 -4.17433 -4.32624 -4.28539 -4.30784 -4.29727 -4.34985 -4.43797 -4.37898 
-4.37431 -3.85691 -3.54736 -3.58474 -3.71148 -3.65659 -3.82148 -3.8482 -3.84469 
-3.93296 -3.89601 -3.41916 -3.47091 -2.64021 -2.87173 -2.70435 -2.77323 -2.96681 
-2.37393 -2.46592 -2.53596 -2.18467 -2.30722 -2.08247 -3.00491 -3.34878 -3.30843 
-3.08824 -3.22986 -0.0653348 -0.0941922 -0.110687 -0.136921 3.46945e-18 0 -8.67362e-19 
0 0 -3.46945e-18 0 0 0 -1.73472e-18 1.73472e-18 1.73472e-18 
1.73472e-18 1.73472e-18 1.73472e-18 -0.0480891 -0.00647491 0 3.46945e-18 -1.73472e-18 -3.46945e-18 
-0.0614929 -0.168082 -0.138083 -0.188545 -0.411423 -0.381001 -0.44294 -0.396603 -0.538917 
-0.560556 -0.525513 -0.662655 -0.723335 -0.35872 -0.766094 -0.779392 -0.802649 -0.914732 
-1.08401 -1.00585 -1.15212 -1.2447 -0.256272 -0.207276 -0.111553 -0.0699798 -1.72847 
-1.81381 -1.34531 -1.53472 -1.4518 -1.61755 -1.92403 -2.03249 -0.150996 -0.100071 
-0.176927 -0.226586 -0.0253897 -0.0213776 0 3.46945e-18 0 0 -0.0743213 
-0.0233086 0 -0.204034 -0.24751 -0.230698 -0.221272 -0.292933 -0.427901 -0.274365 
-0.201457 -0.519813 -0.598235 -0.665572 -0.728127 -0.778652 -0.867679 -0.886211 -0.753744 
-0.813867 -1.00409 -1.04047 -1.11559 -1.17322 -1.21233 -1.2558 -1.42851 -1.50062 
-1.21651 -1.38091 -1.59596 -1.96338 -2.07902 -2.15157 -1.6473 -1.71353 -1.74996 
-1.90581 -2.29871 -2.2251 -2.34071 -2.43786 -2.50265 -2.56907 -2.71426 -3.25948 
-3.3406 -3.19943 -3.3014 -3.30936 -3.33052 -2.81491 -3.01994 -3.16033 -3.90586 
-3.88543 -3.76166 -3.86184 -3.72966 -3.55624 -3.47605 -3.65186 -3.7191 -3.72794 
-3.93798 -4.03906 -4.26518 -4.16565 -4.27463 -4.1059 -4.16052 -4.31174 -4.25237 
-4.28402 -4.32441 -4.14426 -4.03488 -4.35928 -4.28657 -4.35853 -4.41165 -4.39762 
-4.40497 -4.40337 -4.46756 -4.53366 -4.60863 -4.51448 -4.40888 -3.52254 -3.56529 
-3.63181 -3.74238 -3.7039 -3.89045 -3.81314 -3.94439 -3.51196 -2.56076 -2.87696 
-2.66544 -2.58577 -2.72501 -2.84112 -2.34681 -2.41256 -2.50869 -2.10926 -2.12108 
-2.19466 -2.2513 -1.86906 -2.00278 -2.93692 -3.39435 -3.43738 -3.23979 -3.19798 
-3.02081 -3.04771 0 -0.0487902 3.46945e-18 -1.73472e-18 -0.0688855 0 8.67362e-19 
0 0 -0.00627606 -0.0300754 -0.0915982 -0.110826 -0.0578988 -0.369269 -0.321344 
-0.457642 -0.24597 -0.599921 -0.532981 -0.656535 -0.684655 -0.695127 -0.740066 -0.827786 
-0.967817 -0.873598 -1.11662 -1.10731 -1.16863 -1.11053 -1.29302 -0.190399 -0.0791514 
-0.0139354 -1.6169 -1.71394 -1.84778 -1.36694 -1.56225 -1.4271 -1.53961 -1.85622 
-0.0085111 -0.0461395 -0.0937006 -0.119023 1.73472e-18 -1.73472e-18 0 0 0 
0 -1.73472e-18 -0.0865249 -0.170865 -0.212342 -0.147679 -0.110919 -0.233427 -0.415478 
-0.260162 -0.15287 -0.0791269 -0.528567 -0.617378 -0.65106 -0.689162 -0.683085 -0.786618 
-0.842906 -0.768262 -0.662526 -0.918292 -0.990609 -1.02623 -1.12217 -1.11813 -1.48838 
-1.45573 -1.0825 -1.17938 -1.25786 -1.29522 -1.38163 -1.57111 -2.03836 -1.98131 
-2.1353 -1.60224 -1.69453 -1.7347 -1.85243 -1.92947 -2.24603 -2.33665 -2.38178 
-2.50803 -2.67422 -2.73135 -2.56708 -2.60463 -2.80722 -3.2852 -3.23647 -3.34184 
-3.35959 -3.4746 -2.90615 -3.031 -3.17647 -3.31077 -4.01189 -3.96074 -3.91104 
-4.01342 -3.88735 -3.78056 -3.78542 -3.56419 -3.68899 -3.81413 -3.82304 -3.75944 
-4.04879 -4.11655 -4.36659 -4.35873 -4.21137 -4.28215 -4.24562 -4.40571 -4.38498 
-4.40165 -4.12478 -4.19846 -4.01344 -4.08526 -4.36752 -4.40221 -4.49513 -4.49135 