# vtk DataFile Version 4.2
3D Slicer output. SPACE=LPS
ASCII
DATASET POLYDATA
POINTS 2564 float
23.4245 -98.3575 42.5699 23.4738 -98.4318 42.788 23.4096 -98.3637 42.8855 
23.2094 -98.1125 41.7442 23.515 -98.4474 42.9069 22.5965 -97.7011 44.3355 
23.4099 -98.4095 43.7355 21.9948 -97.2198 44.2123 22.0513 -97.1697 42.8355 
22.5143 -97.5045 42.0355 23.0729 -97.9292 41.2706 23.577 -98.5112 43.1918 
22.625 -97.8341 45.1487 21.5847 -96.9389 44.8605 23.3122 -98.2977 44.5355 
23.6731 -98.7372 45.0355 23.615 -98.6233 43.525 21.278 -96.5369 44.027 
21.4634 -96.5623 42.9355 21.8918 -96.8276 42.0355 22.2895 -97.1296 40.971 
22.5838 -97.4225 40.8195 22.9543 -97.775 40.8575 23.3 -98.3612 45.6811 
21.3603 -96.8476 45.6355 22.7078 -97.8742 46.2355 23.9935 -98.922 46.473 
23.814 -98.8876 44.9277 23.7581 -98.8117 44.533 20.7196 -96.3004 45.7355 
20.2465 -95.5672 44.5355 20.8381 -95.9296 43.6166 20.5876 -95.1316 42.4355 
21.1872 -95.8765 42.2039 21.7488 -96.4328 41.3286 22.0738 -96.6039 40.3355 
22.8265 -97.6121 40.4707 22.1198 -96.4436 39.5855 22.6579 -97.3403 39.9201 
22.5709 -97.1258 39.5459 20.1886 -95.9282 46.8355 21.3108 -96.8934 46.5855 
23.1506 -98.2597 47.1355 22.4004 -97.6159 47.0599 24.0022 -98.9505 46.2613 
24.0383 -98.9592 46.4865 23.8895 -98.7283 47.7639 23.4464 -98.3654 47.5355 
20.2262 -95.7595 45.9855 20.084 -95.5826 45.4182 20.0108 -95.3296 44.8355 
19.9343 -95.1839 44.4457 20.4797 -95.5296 43.8939 20.6225 -94.9296 41.8355 
20.1684 -94.2406 41.6855 19.9764 -94.1296 41.9355 20.3183 -95.1025 43.3355 
20.2543 -94.8133 42.7355 21.4688 -95.9302 40.9043 21.7039 -95.9054 40.0355 
22.4128 -96.6137 38.7613 22.5387 -96.9433 39.2667 22.1758 -96.2697 38.7359 
21.6733 -95.5632 39.3355 19.6313 -95.5657 47.4355 21.0148 -96.6077 47.4355 
20.2601 -96.1481 48.6355 22.2181 -97.5268 47.5855 24.1469 -98.9811 47.3582 
23.632 -98.5922 48.3355 23.9732 -98.8826 48.3355 24.1644 -99.0197 47.7183 
24.1726 -99.043 47.9042 22.8129 -97.9533 48.2355 19.3899 -95.1351 46.0605 
18.9739 -94.7168 45.7855 19.2801 -94.7296 44.719 19.3945 -94.4296 44.1313 
20.8573 -94.6141 40.3355 21.1138 -95.2818 40.7355 19.8394 -93.3763 41.2386 
20.0057 -93.2822 40.7536 19.643 -93.9325 42.4355 19.3146 -93.1816 42.0451 
19.303 -92.5086 41.2427 19.4903 -94.3362 43.4441 21.2981 -95.1079 39.826 
22.3494 -96.4666 38.5281 22.3006 -96.237 38.2516 22.2787 -96.0748 38.0658 
22.2651 -95.9712 37.9468 21.5274 -94.937 38.8355 19.3263 -95.4925 48.8855 
18.6895 -95.0202 48.6355 19.0601 -95.0586 47.028 18.6895 -94.8945 47.8295 
21.1319 -96.6943 48.4355 19.708 -95.6769 49.8855 22.0895 -97.433 49.0355 
22.8575 -97.9478 49.5355 24.0964 -98.9175 49.0355 23.4107 -98.1561 49.9355 
24.1842 -99.0978 48.2722 24.2697 -99.0831 48.6313 17.8092 -93.7665 45.9355 
17.8895 -93.4278 44.9355 18.2864 -94.3254 46.4509 18.6697 -93.942 44.4514 
19.0449 -93.9808 43.7355 20.8791 -94.1476 39.6464 19.6234 -92.1148 40.293 
20.826 -93.7296 39.3355 19.9575 -92.3296 39.7355 19.2792 -93.7413 42.8549 
18.6453 -92.3636 42.1188 18.5681 -93.0069 43.0355 19.0175 -91.9138 41.0904 
21.1285 -94.1269 38.889 22.2354 -95.8213 37.787 21.8897 -95.1446 37.8567 
21.2516 -94.0232 38.3507 18.4163 -94.9363 49.7355 17.6771 -94.4847 49.2384 
18.2566 -94.552 47.1355 17.5782 -94.337 48.4855 17.4895 -93.9996 47.4355 
21.0791 -96.6494 49.3855 20.0005 -95.8057 51.1355 19.3131 -95.28 51.8355 
19.0895 -95.2355 50.4355 20.8895 -96.4405 50.4355 21.5932 -96.9317 49.7855 
22.2895 -97.5147 49.8355 23.563 -98.1383 50.8355 22.4895 -97.4051 51.2355 
23.013 -97.739 51.2855 24.2899 -99.0895 48.7381 24.3008 -98.9175 49.5221 
24.2895 -98.6164 50.1355 17.2058 -93.3667 45.9355 17.409 -93.7539 46.7355 
17.3779 -93.0405 44.9054 17.911 -93.2044 44.4377 17.3695 -92.7003 44.5355 
18.2762 -93.1296 43.7163 19.65 -91.2432 39.7308 20.6328 -93.093 38.9777 
20.2582 -92.0704 39.0078 20.1251 -91.4296 38.894 18.2895 -91.8386 42.0405 
17.8981 -92.1198 42.9735 18.2703 -92.9296 43.5233 18.3701 -90.9414 41.2083 
22.1368 -95.3738 37.3182 21.4543 -93.6954 37.5561 22.0466 -94.4934 36.64 
22.0089 -94.3796 36.6355 20.8845 -92.5835 38.061 21.2736 -92.2423 36.9979 
17.8131 -94.6432 49.9355 16.7817 -93.9841 48.8633 16.8895 -94.2054 50.0355 
17.1622 -93.9224 47.9355 16.8656 -93.7447 47.5355 20.4472 -95.9763 51.6355 
20.317 -95.9185 51.9355 19.6007 -95.3623 52.5355 18.1355 -94.6862 51.4605 
18.2637 -94.5918 52.6355 19.1837 -95.1356 52.4355 21.3967 -96.564 51.7855 
21.9256 -97.0981 50.7355 23.8538 -98.1808 51.2355 24.4996 -98.7231 50.4351 
22.1012 -97.0226 51.8355 22.2448 -96.9943 52.6355 22.9943 -97.5222 52.24 
24.3201 -99.0853 48.8288 24.4526 -99.0176 49.2112 24.7359 -98.9247 49.8385 
25.0472 -98.9516 50.5891 16.4473 -92.4252 45.2895 16.2049 -92.8031 46.2283 
16.7895 -93.4231 47.0355 16.9403 -92.4818 44.7355 18.0528 -92.9666 43.7355 
17.118 -92.1143 43.9517 17.5671 -92.1428 43.3483 18.722 -90.2802 40.3749 
19.877 -90.2399 38.7908 20.2827 -91.0296 38.4088 17.9481 -90.6396 41.5355 
16.9046 -91.4105 43.2472 16.5442 -90.3666 42.635 18.1861 -89.7539 40.6279 
21.9043 -92.998 35.8079 21.9087 -93.0602 35.8409 22.0362 -94.4408 36.5967 
22.0299 -94.385 36.5601 21.9676 -93.6667 36.1722 20.8795 -90.988 37.4178 
21.0583 -90.3296 36.8497 21.873 -90.8296 35.2562 21.8183 -91.6796 35.5059 
21.9036 -92.7045 35.6974 17.4895 -94.4183 51.6355 16.0618 -93.5422 48.6095 
16.1357 -93.7056 49.5355 16.4895 -94.0113 51.0855 16.2624 -93.9622 50.5355 
15.9895 -93.1985 47.5912 20.395 -95.5821 53.2462 18.8014 -94.7638 53.2855 
19.1838 -94.6901 53.9355 16.7432 -93.7371 53.6938 18.3684 -94.5137 53.3355 
16.3402 -93.772 52.6855 21.5153 -96.5118 52.3355 25.2133 -98.9212 50.9514 
25.1715 -98.9268 50.8607 25.2895 -98.8299 51.5355 24.2895 -98.2118 51.6355 
21.727 -96.4602 53.2355 23.2048 -97.3474 53.1355 23.6895 -97.6313 52.8355 
15.5117 -91.7165 45.1634 16.1644 -91.9466 44.8205 15.2825 -92.4039 46.6254 
16.4459 -91.2929 43.6207 19.5295 -89.7296 39.2217 20.1078 -89.1421 38.2056 
16.8801 -89.433 41.704 16.2817 -89.4189 42.2243 15.8489 -90.3183 43.1975 
16.8391 -88.5296 41.2911 18.1084 -88.6296 40.3557 18.7193 -89.3296 40.0147 
21.0409 -89.1296 36.9107 21.3435 -88.8046 36.3564 21.4886 -89.9296 36.0588 
22.0456 -89.6796 35.0238 21.7146 -89.5296 35.7752 21.925 -90.8984 35.1147 
22.0646 -89.7963 34.9565 21.8886 -91.646 35.3006 21.8843 -91.8634 35.368 
15.3866 -93.3743 49.4765 15.7476 -93.2808 48.2911 15.2025 -93.5317 51.2355 
14.9285 -93.3532 50.2429 15.9523 -93.7726 51.5855 14.9845 -92.6993 47.5254 
20.5895 -95.2862 54.4798 20.9597 -95.7604 53.8392 18.6499 -94.1973 54.9456 
19.3361 -94.594 54.6355 20.3474 -94.7771 55.2563 17.6022 -93.9694 54.0786 
16.1294 -93.2953 54.5855 15.787 -93.3955 53.8355 14.7895 -93.1476 53.7355 
15.0771 -93.3836 52.4855 25.2895 -98.9386 51.0444 25.4357 -98.9296 50.9355 
25.2895 -98.6757 51.8355 25.8895 -98.7165 51.8968 24.4877 -98.1741 52.0355 
22.8518 -96.7211 54.2132 22.21 -96.4145 54.0855 23.9895 -97.4488 53.6355 
24.4856 -97.8802 52.6855 14.6542 -92.044 46.4419 14.3183 -90.9288 44.9899 
15.338 -90.8231 44.0802 13.7838 -91.9389 47.0328 19.2386 -88.3921 39.1089 
19.908 -88.4296 38.3598 16.2895 -88.8183 41.8861 14.8515 -88.9239 42.8652 
16.2704 -88.2296 41.6589 16.936 -87.9296 41.0114 18.4808 -88.1796 39.8547 
21.2999 -88.2843 36.5277 21.4895 -88.5 36.1266 22.1489 -88.5296 34.9355 
22.0813 -89.672 34.9385 22.201 -88.6555 34.7918 14.6013 -92.859 48.6676 
14.1895 -93.0403 49.9355 14.1978 -93.1991 52.2355 14.1411 -93.1213 50.4855 
14.2492 -92.5376 47.916 21.2895 -95.5659 54.8355 21.6696 -95.1296 55.9512 
17.3985 -93.6738 54.9184 18.4523 -93.9209 55.4094 20.1895 -94.4463 55.7855 
19.1112 -93.9305 55.8225 14.9354 -92.8516 54.8903 16.6827 -93.2504 55.3961 
16.2887 -92.7731 56.0355 13.3779 -92.7524 54.3395 13.4067 -92.94 53.3355 
25.3562 -98.9476 50.9355 25.4038 -98.9306 50.7766 25.5083 -98.8343 50.964 
25.7825 -98.7562 51.3598 25.0849 -98.0269 53.032 25.4895 -98.3207 52.462 
26.024 -98.6399 51.7883 26.2268 -98.57 51.9921 26.9895 -98.2149 52.7355 
23.9581 -97.1125 54.313 23.1971 -96.4772 54.9234 22.4895 -96.2752 54.7355 
24.6502 -97.7466 53.5355 13.9761 -91.7332 46.5419 13.1895 -90.7534 45.4876 
13.9114 -90.0977 44.3488 14.1822 -89.5144 43.7431 12.6288 -91.5061 46.9902 
11.9655 -91.7942 48.0239 13.6938 -92.303 47.8894 19.7193 -87.6296 38.5711 
19.4927 -87.3296 38.7355 20.0882 -87.2912 38.1235 20.8761 -87.3296 37.314 
14.8218 -87.9422 42.3419 15.5895 -87.4851 41.7625 14.3395 -88.6 42.9134 
14.4175 -88.0831 42.5713 16.0895 -87.2296 41.4347 16.7995 -87.1796 40.9315 
17.9318 -87.4296 40.1682 18.3737 -87.3296 39.7792 21.0737 -87.1296 37.0624 
21.6267 -87.1296 36.2956 21.9298 -87.4296 35.7632 22.5911 -87.3322 34.7219 
22.4962 -87.6388 34.7367 22.2732 -87.3296 35.3021 22.3228 -88.2341 34.7649 
22.2504 -88.4542 34.7847 12.5298 -92.1639 48.3855 12.9895 -92.5627 49.4067 
13.4274 -92.8794 50.1355 13.4895 -92.9727 51.4855 12.4931 -92.8397 52.5355 
21.4744 -94.2249 57.0355 20.6748 -94.3944 56.2401 22.4872 -95.4413 56.0252 
18.2974 -93.5622 56.0242 19.9809 -93.7958 56.7474 18.5872 -93.1623 56.8952 
16.2943 -92.3612 56.8571 14.702 -92.3902 56.04 14.1449 -92.5211 55.4277 
17.5883 -93.1998 56.2224 17.2685 -92.4233 57.403 11.577 -92.4582 54.3788 
12.2589 -92.7146 53.0421 11.4833 -92.2682 55.1025 12.5604 -92.1453 55.8865 
25.7395 -97.412 54.7355 26.2895 -97.6317 54.3355 25.2895 -97.3916 54.7355 
26.1895 -98.0338 52.9355 26.9116 -98.256 52.552 27.1246 -98.209 52.7355 
27.7895 -98.0106 53.5355 27.0895 -97.899 53.4461 24.5895 -96.7741 55.309 
23.8895 -95.9857 55.9904 11.5895 -90.5478 45.9184 12.8938 -90.2296 45.0355 
12.0654 -89.5973 44.6328 13.3936 -89.2276 43.8378 11.5531 -91.1274 46.9426 
10.2395 -91.9714 49.1121 10.4965 -91.4879 48.037 11.9895 -92.2184 49.0855 
20.1949 -86.1172 38.2698 19.4145 -86.1796 38.9186 20.6743 -86.9296 37.5178 
14.4352 -87.092 42.122 15.425 -86.5756 41.5594 13.3489 -88.7343 43.4761 
13.1101 -87.7497 42.8981 13.4821 -86.3178 42.1407 15.7272 -85.6796 41.1522 
16.5753 -86.5296 40.962 17.3039 -86.6102 40.5447 17.8895 -85.8296 40.0547 
[...]
POINT_DATA 2564
SCALARS scalars float
LOOKUP_TABLE default
2.77556e-17 -1.38778e-17 -0.121391 5.55112e-17 0 -1.54 -0.343939 -2.25266 -1.79945 
-0.963494 2.77556e-17 1.38778e-17 -1.60562 -2.89225 -0.679124 -0.228817 0 -3.1458 
-2.61568 -1.79471 -0.878915 -0.444064 -5.55112e-17 -0.843756 -3.26907 -1.6756 -0.0566146 
2.77556e-17 2.77556e-17 -4.11606 -4.64877 -3.69601 -3.87291 -2.91869 -1.81536 -1.03181 
-2.77556e-17 -0.722036 -2.77556e-17 0 -4.90659 -3.40932 -1.19005 -2.16537 0 
6.93889e-18 -0.404079 -0.942626 -4.87166 -4.98712 -5.05636 -5.08304 -4.29576 -3.69879 
-4.3294 -4.63816 -4.45675 -4.41937 -2.09994 -1.53707 -2.77556e-17 0 -0.33418 
-1.38759 -5.62916 -3.90661 -4.91611 -2.41655 0 -0.751494 -0.308798 0 
5.55112e-17 -1.76645 -5.9125 -6.43945 -5.91934 -5.81397 -2.98511 -2.63436 -4.8155 
-4.49861 -5.2094 -5.67214 -5.6156 -5.52044 -2.15218 0 0 0 
1.11022e-16 -1.55166 -6.08019 -6.83386 -6.34383 -6.81929 -3.87435 -5.83224 -2.76757 
-1.96195 -0.320678 -1.50878 0 1.38778e-17 -7.93878 -7.77297 -7.32361 -6.7326 
-6.15803 -2.85357 -4.9754 -2.9145 -4.29678 -5.75351 -6.58732 -6.73198 -5.95808 
-2.24565 5.55112e-17 -0.616532 -1.86077 -7.26149 -8.03802 -7.29529 -8.10774 -8.26734 
-4.08787 -5.81902 -6.84797 -6.68829 -4.58257 -3.59773 -2.72544 -1.68076 -3.03746 
-2.47752 1.38778e-17 -0.274133 -0.628972 -8.6359 -8.39593 -8.34673 -7.68722 -8.3941 
-7.16793 -4.86017 -3.06228 -3.6916 -3.89156 -7.03505 -7.64055 -7.20267 -6.77627 
0 -1.32857 0 -0.0716828 -2.44925 -1.53304 -7.9485 -9.00086 -8.9613 
-8.62584 -8.92695 -5.5226 -5.75154 -6.8063 -7.99721 -8.28931 -7.21683 -4.52008 
-3.48258 -1.58887 -0.506692 -3.7556 -3.99105 -2.99638 1.38778e-17 0 0 
1.38778e-17 -9.5139 -9.80675 -9.12165 -8.90076 -7.41896 -8.63103 -8.02591 -6.13761 
-4.25305 -3.53869 -7.35906 -8.79927 -7.89388 -6.75777 6.245e-17 5.55112e-17 -1.38778e-17 
0 0 -2.4382 -2.01612 -0.162748 -0.201967 0 -8.7047 -9.80917 
-9.77525 -9.60075 -9.70012 -9.95696 -6.35311 -8.00617 -8.00741 -10.2832 -8.48893 
-10.2617 -4.65994 4.16334e-17 -1.38778e-17 -0.401675 -1.4179 -4.9086 -3.35566 -2.72002 
-9.69062 -9.77468 -10.8502 -8.99121 -4.89623 -3.85318 -6.88846 -6.85589 -7.84605 
-5.94913 -6.13075 -6.05514 -2.28828 -1.71561 -1.20743 -0.0903894 -0.924658 2.77556e-17 
0 0 2.77556e-17 -10.5668 -10.1793 -10.9472 -11.0775 -10.2825 -11.0521 
-6.90485 -6.09881 -9.088 -8.24225 -7.70916 -9.63728 -11.3102 -11.2615 -12.1537 
-11.4304 0 -0.106101 -0.599519 -0.192984 -1.48219 -4.45733 -4.99011 -3.01472 
-1.95101 -10.3323 -8.67847 -8.46747 -10.355 -5.1914 -4.20356 -6.21949 -6.2584 
-5.61024 -5.34728 -5.69224 -1.96849 -1.49689 -0.173828 1.38778e-17 0 -11.4003 
-11.8129 -12.187 -11.9016 -11.3909 -6.43648 -6.96292 -10.2768 -9.58184 -8.25025 
-9.2948 -12.5811 -11.2306 -12.0397 -13.694 -13.2723 -6.93889e-18 0 0 
-6.93889e-18 -1.65681 -0.922701 -1.38778e-17 -1.38778e-17 -0.128123 -3.56005 -4.71136 -5.19704 
-2.36924 -9.97921 -8.52235 -7.61749 -6.92969 -9.78334 -10.4829 -11.0815 -4.61963 
-4.86604 -4.11934 -3.02541 -5.20126 -4.78874 -5.87228 -5.31532 -4.57564 -4.58284 
-4.91768 -4.83996 -2.75894 -1.84202 -1.17623 -5.55112e-17 5.55112e-17 -0.644351 2.77556e-17 
-2.77556e-17 -11.0572 -12.0344 -12.5732 -12.7208 -13.8775 -8.11949 -8.16913 -6.28656 
-10.1614 -9.21435 -10.5825 -12.6113 -13.4362 -13.5676 -10.9507 -12.1389 -15.2801 
-14.2644 -15.7344 -15.1852 -2.44007 -1.7282 -2.76796 -0.813884 1.38778e-17 -1.38778e-17 
-0.0348647 -0.529641 -3.83063 -5.04107 -8.32219 -7.82539 -6.9917 -6.55921 -9.30886 
-11.1151 -10.1123 -11.4375 -3.66544 -3.71126 -3.38868 -4.27686 -3.84745 -5.98274 
-4.86396 -3.38546 -2.97282 -3.9129 -4.0565 -3.31821 -2.69127 -2.95471 -3.03726 
-2.49286 -1.91728 -0.87718 5.55112e-17 -12.3098 -12.9933 -13.6322 -13.9944 -7.28252 
-8.6368 -8.13834 -6.3128 -10.9502 -9.956 -14.5253 -13.3842 -14.5607 -15.2458 
-12.0962 -12.9446 -14.9343 -15.6216 -16.0372 -16.5335 -2.48252 -3.67568 -3.14018 
-1.52176 -1.92113 0 -0.88261 0 -5.02353 -3.85945 -5.6236 -6.90456 
-8.3735 -8.89687 -6.32455 -10.9395 -11.4648 -11.7284 -10.0884 -8.57721 -9.7285 
-2.16407 -2.88068 -2.0511 -3.36423 -4.76781 -3.66868 -1.89633 -2.3005 -2.62767 
-2.39157 -1.87563 -3.54265 -1.52059 -2.83723 -1.0448 -1.48091 -2.05384 -2.39703 
-1.67529 -2.4204 -1.88676 -1.21763 -0.94523 0 -13.2025 -13.9447 -6.89447 
-9.88727 -8.58606 -6.52135 -7.52035 -11.0701 -10.5354 -15.6018 -14.5323 -13.9399 
-17.7437 -12.3317 -13.3314 -13.9705 -15.019 -15.6435 -16.2988 -17.2868 -3.48686 
-2.53581 -2.34165 -4.41372 -4.16075 -1.25254 2.77556e-17 0 -0.5607 -5.95838 
-5.01622 -6.56982 -7.17709 -6.48668 -5.3738 -8.13817 -11.1008 -12.3801 -11.6279 
-12.7064 -9.91799 -9.10781 -8.43947 -1.444 -3.97093 -2.57741 -1.78972 -1.1256 
-0.801029 -1.94528 -1.07422 -1.75926 -1.23339 -1.47981 -0.913482 -0.60894 -0.636113 
-1.05027 -0.544684 -1.81235 -0.338868 -1.02343 -1.17621 -1.60979 -1.84495 -2.77556e-17 
0 -0.505713 -10.5239 -9.02062 -9.38283 -7.43073 -7.87514 -12.6652 -10.9583 
-16.26 -16.7134 -17.0054 -14.5221 -15.4523 -17.517 -17.6004 -14.1558 -13.8908 
-13.5126 -14.658 -14.9778 -15.9311 -17.0253 -3.07355 -3.79556 -2.03803 -1.14228 
-4.79863 5.55112e-17 2.77556e-17 -0.73039 -6.5316 -5.67315 -6.40228 -6.46041 -7.54775 
-5.7176 -5.61737 -7.81922 -9.62475 -10.3987 -11.2696 -8.99566 -8.57098 -8.23529 
-8.526 -8.12954 -4.12623 -3.57403 -2.86421 -2.44787 -1.64923 -1.18748 -0.62512 
-0.533317 -1.42635 -0.601435 -0.636183 -0.0766148 5.55112e-17 0 2.77556e-17 -0.0297052 
-2.77556e-17 0 0 -0.0495974 -2.77556e-17 6.93889e-18 0 -0.383684 0 
2.77556e-17 -0.606724 -0.592357 -1.4432 -0.760718 -1.38778e-17 -0.109097 6.93889e-18 -10.6631 
-8.98001 -6.84187 -8.15644 -7.53539 -6.62222 -13.7048 -12.5682 -11.4237 -17.552 
-16.5699 -16.4235 -17.1725 -16.3663 -17.0511 -16.5572 -16.5555 -13.317 -12.2452 
-11.6247 -14.0563 -14.9433 -14.484 -15.8996 -16.1847 -17.0049 -2.41697 -2.6288 
-1.14692 -4.11735 0 -0.180494 -0.589598 -5.70982 -5.19167 -6.48281 -6.19519 
-5.03462 -7.11832 -8.92021 -8.19157 -9.806 -7.75184 -7.53532 -4.77998 -4.34213 
-2.93825 -2.83675 -2.79394 -1.88131 -1.32071 -0.682556 0 0 5.55112e-17 
-0.0993349 0 -1.05796 -5.55112e-17 -2.77556e-17 0 0 3.46945e-18 -3.46945e-18 
0 0 -2.77556e-17 0 0 2.77556e-17 -0.347288 0 0 
1.04083e-17 -3.1225e-17 -0.448771 -1.06483 -1.38778e-17 -2.77556e-17 0 0 0 
-9.57066 -10.8717 -12.1093 -8.61128 -6.81388 -7.87193 -6.15988 -12.8371 -13.8883 
-16.6027 -15.9181 -17.1727 -16.4548 -15.3022 -16.0826 -15.802 -11.6553 -13.31 
-11.1396 -9.58762 -10.1751 -13.3092 -13.7368 -14.6821 -15.8322 -15.6696 -15.766 
-14.8829 -1.7036 -2.17238 -2.55573 -3.3077 -4.33985 -1.38778e-17 -2.77556e-17 0 
-0.980155 -0.258802 -2.77556e-17 0 -5.30609 -6.28519 -5.63822 -4.94807 -6.83645 
-8.46062 -9.26697 -7.92099 -7.93629 -7.04124 -7.38904 -6.44263 -6.9453 -3.84205 
-4.52404 -3.10817 -1.92725 -1.02866 -1.22437 -0.621468 0 5.55112e-17 0 
0 0 -2.77556e-17 0 1.38778e-17 2.08167e-17 -5.55112e-17 -0.254265 -0.621303 
0 2.77556e-17 -10.1242 -11.5913 -10.3529 -12.7578 -8.66944 -6.15052 -5.89434 
-6.89059 -6.45217 -7.18669 -14.3026 -15.8349 -16.5025 -14.6531 -15.2484 -16.1233 
-14.9456 -10.4926 -11.9473 -9.165 -8.45564 -8.68708 -9.60156 -7.97152 -12.4022 
-12.1395 -13.0299 -15.3616 -13.9145 -15.1057 -14.7653 -13.9153 -14.205 -1.23661 
-1.75975 -2.8024 -3.91737 -4.31647 -0.250582 2.77556e-17 2.77556e-17 2.77556e-17 -4.91585 
-6.19501 -5.95842 -5.29529 -6.06566 -7.7197 -7.4179 -6.5394 -6.94817 -5.7402 
-6.15328 -3.42094 -5.31782 -4.34365 -3.50936 -2.60572 -1.87876 -1.39234 -0.798436 
-0.419993 2.77556e-17 2.77556e-17 2.77556e-17 2.77556e-17 0 -6.93889e-18 -2.08167e-17 -0.107106 
0 -9.1211 -11.7477 -12.3054 -9.94374 -8.47183 -5.14364 -6.05509 -6.65157 
-8.02633 -6.82974 -15.3754 -13.3983 -14.8436 -14.5909 -15.1885 -15.0366 -15.5297 
-15.8101 -14.5159 -13.5915 -16.0553 -13.7353 -11.3656 -10.1625 -9.56287 -7.44715 
-6.95259 -8.09595 -7.41177 -12.0487 -11.4254 -12.396 -15.0096 -13.7585 -12.7856 
-14.235 -13.6409 -13.1202 -12.7787 -12.9773 -13.5997 -0.0831525 -1.06434 -1.66898 
-1.15537 -1.68175 -3.54236 -3.7406 -2.53991 -4.23841 0 0 -5.80519 
-5.39483 -6.48206 -6.73947 -6.31888 -6.04456 -5.85228 -5.00078 -5.56198 -5.8012 
-4.97742 -4.65056 -4.23195 -3.75888 -2.59049 -2.24561 -1.27559 -0.941161 2.77556e-17 
4.16334e-17 2.77556e-17 3.46945e-18 1.38778e-17 0 -8.72184 -9.92442 -11.8385 -5.54265 
-4.38309 -5.53245 -5.99625 -7.57543 -5.99387 -14.8298 -13.6947 -14.4023 -13.6499 
-13.1018 -13.5483 -13.8946 -14.9135 -12.9055 -12.8716 -15.3881 -15.5049 -13.1852 
-9.68482 -10.71 -8.42037 -6.64616 -6.00862 -6.7654 -6.94919 -10.861 -10.1582 
-12.0941 -12.8769 -14.0523 -11.5424 -11.0899 -12.9344 -12.3347 -11.3387 -11.2185 
-12.7994 -12.3203 -1.38778e-17 0 0 -2.77556e-17 -5.55112e-17 -0.290282 0 
-0.846821 -1.83278 -3.23594 -2.23151 -5.2382 -4.99931 -5.75878 -5.68537 -4.74451 
-4.95483 -4.65684 -4.35678 -4.5281 -4.31821 -5.03679 -4.1013 -3.16252 -3.66872 
-2.16187 -1.82601 -1.37196 -0.402464 -0.775934 3.46945e-18 -0.420538 -9.64687 -8.77939 
-10.7968 -12.3621 -3.78933 -4.72277 -4.97297 -5.69243 -7.4738 -6.91765 -4.9232 
-5.09647 -14.3825 -13.7328 -15.6367 -13.4818 -12.3565 -11.4957 -12.7507 -12.4117 
-12.531 -13.5748 -14.1404 -11.7774 -11.4935 -14.5099 -8.68413 -7.49923 -5.86657 
-6.30698 -5.07196 -5.97547 -5.88773 -9.99772 -10.9647 -11.8047 -12.5961 -10.5913 
-9.89309 -11.6828 -11.387 -11.4983 -10.9399 -10.9677 -9.52472 -9.90101 -12.3995 
-11.5969 -10.9104 -11.3585 2.77556e-17 0 0 5.55112e-17 -0.0582276 -0.982784 
-3.30727 -1.64288 -3.191 -3.16986 -1.9423 -4.44651 -4.05242 -3.62775 -4.09319 
-4.32167 -4.07174 -3.60148 -3.69344 -2.77064 -2.23036 -1.4034 -1.40219 -2.77556e-17 
0 -2.77556e-17 2.77556e-17 4.16334e-17 -2.77556e-17 -0.801149 0 0 -10.9283 
-9.38231 -8.09528 -12.1949 -12.9291 -4.08698 -4.38688 -4.54486 -5.75626 -7.29682 
-4.1614 -4.22217 -4.95963 -4.09474 -13.7919 -14.3351 -14.2716 -15.1569 -11.529 
-11.6397 -10.2498 -10.8451 -11.5666 -12.2317 -12.6255 -13.91 -8.2383 -7.4906 
-5.63274 -5.34715 -4.58477 -3.84382 -4.91689 -4.44333 -9.2725 -9.05735 -9.55756 
-11.9954 -10.8336 -10.4477 -9.46554 -9.70934 -11.2911 -10.9587 -10.5819 -10.6975 
-10.0012 -9.63728 -9.38799 -8.4921 -9.07504 -9.42092 -10.9292 -9.77825 -10.1778 
-10.9091 -9.32692 -6.93889e-18 0 0 -0.611137 -5.55112e-17 -0.758138 -0.880461 
-3.59626 -3.95817 -3.60794 -2.10394 -1.10479 -3.24639 -4.17347 -3.34348 -2.80233 
-3.20757 -2.83453 -2.77986 -2.62718 -2.19669 -2.10445 -1.6545 2.77556e-17 -5.55112e-17 
2.77556e-17 -0.791518 -9.98331 -10.5269 -11.5878 -11.4584 -8.66927 -8.37498 -12.6901 
-4.15334 -5.10783 -6.40016 -3.08092 -3.71928 -4.81813 -3.27685 -13.6695 -14.5094 
-14.384 -13.7843 -13.1487 -14.9011 -10.8757 -10.5587 -9.86704 -8.87715 -11.3156 
-10.6501 -11.4879 -12.7208 -6.74314 -4.7559 -4.16959 -3.75866 -3.16689 -3.11899 
-4.06795 -7.30396 -8.58462 -7.45387 -7.86061 -8.51855 -9.77878 -8.69796 -8.73017 
-7.31554 -8.37098 -8.47469 -10.1146 -9.53377 -9.67396 -10.0751 -9.01985 -8.38267 
-8.52349 -7.91902 -8.10617 -7.48917 -9.472 -8.76655 -8.8736 -9.18792 -8.49762 
-0.108287 0 -0.248 -0.510625 -1.30574 -1.85239 -0.399893 -0.397195 -2.76908 
-2.2725 -1.84645 -3.51335 -2.06292 -1.77227 -2.41799 -1.69184 -1.85698 -1.43904 
-2.06619 -1.77342 -1.22995 -1.53913 -0.762822 -0.811414 -2.77556e-17 -0.492606 -10.4631 
-9.31623 -12.2176 -12.2602 -11.6137 -11.1493 -8.97436 -7.97103 -7.3074 -5.26753 
-5.86998 -2.57927 -3.40802 -2.45108 -1.45322 -2.15354 -14.0813 -14.7496 -14.1412 
-13.1279 -12.92 -14.1721 -12.4136 -9.68603 -9.37362 -9.70702 -8.77641 -8.23464 
-10.8741 -9.53244 -9.42358 -11.2249 -5.66653 -3.90455 -4.81255 -5.1292 -3.12018 
-2.65937 -2.91305 -1.89301 -2.34904 -5.29926 -5.83425 -6.76614 -7.00931 -6.89293 
-5.57031 -6.78109 -6.98174 -7.11174 -6.8661 -7.98358 -5.65884 -6.61928 -9.01971 
-9.15421 -8.37632 -8.14015 -8.26126 -7.38355 -7.76398 -7.5737 -7.81349 -6.80643 
-7.02212 -7.5926 -6.79884 -8.2673 -7.50826 -6.32288 -7.29839 -7.93595 -7.85903 
0 -1.38778e-17 0 0 0 0 -2.77556e-17 -0.356647 -1.61664 
0 -2.77556e-17 5.55112e-17 -2.77556e-17 -1.90334 -2.63483 -1.23094 -0.472154 -0.775791 
-0.809888 -1.50167 -0.451472 -0.611499 -0.862601 -0.32447 -0.568385 -0.323529 -0.402222 
-0.236321 -2.77556e-17 -5.55112e-17 5.55112e-17 -2.77556e-17 -10.0833 -9.32847 -13.5592 -11.971 
-11.0413 -10.1897 -8.00579 -7.37448 -5.12321 -5.71619 -2.94575 -3.43379 -1.22179 
-0.172103 -0.153611 -0.973544 -2.14951 -13.7863 -13.5355 -12.9143 -11.906 -11.3283 
-12.18 -11.5263 -8.90595 -8.59323 -7.72985 -10.1119 -10.4617 -8.67905 -7.83501 
-8.56945 -9.19769 -3.67169 -2.94603 -2.58218 -4.14257 -5.24091 -2.56292 -1.79641 
-2.43779 -1.25163 -1.487 -0.928389 -3.77937 -3.90165 -5.14891 -4.66663 -4.19951 
-4.82437 -4.11085 -4.25566 -4.80743 -6.15795 -5.65233 -7.09289 -5.80101 -4.59827 
-4.42903 -4.29362 -7.81727 -8.24645 -7.72419 -7.10758 -7.15217 -6.39527 -5.98641 
-5.59547 -6.45237 -6.19856 -5.65495 -6.52653 -6.66988 -5.80078 -5.11013 -5.11619 
-6.91675 -7.07216 -6.96363 -6.86661 2.77556e-17 -1.49923 -0.610476 -1.73472e-17 1.38778e-17 
2.77556e-17 -0.26019 -5.55112e-17 2.77556e-17 -2.77556e-17 -0.324197 -2.77556e-17 0 -5.55112e-17 
0 -4.16334e-17 0 0 0 -2.77556e-17 0 0 -1.38778e-17 
0 -2.77556e-17 -9.61264 -9.07911 -8.11373 -12.6511 -11.4298 -10.1014 -6.28273 
-7.17839 -4.48117 -5.95514 -3.1938 -3.74843 0 0 -2.77556e-17 -2.77556e-17 
2.77556e-17 6.93889e-18 -0.327648 -0.474725 -1.04454 -2.65211 -1.08941 -1.95547 -12.4257 
-12.7453 -12.799 -12.4909 -12.0283 -11.9956 -10.8033 -10.6445 -10.839 -7.15151 
-7.51525 -6.50048 -9.05108 -10.0332 -6.68254 -6.83807 -7.36782 -3.00608 -1.96697 
-2.11459 -0.666 -1.00046 -1.42387 -0.469049 -0.445788 -0.709105 -0.0801418 -1.70157 
-2.68711 -1.25808 -3.98418 -2.55504 -2.85907 -3.05869 -2.88606 -3.21458 -3.04227 
-4.60672 -3.0213 -3.40801 -4.22301 -5.36859 -4.19031 -3.9767 -3.38336 -7.44734 
-6.36562 -6.23364 -6.7008 -5.5092 -6.12557 -4.98306 -4.4932 -4.83528 -4.27996 
-5.23355 -5.40936 -4.75528 -4.54635 -4.08591 -3.97976 -6.01672 -6.59887 -6.44395 
1.04083e-17 0 0 0 0 -8.97937 -8.68439 -7.47625 -8.01151 
-12.0871 -12.4677 -10.8949 -9.99054 -6.1777 -6.9244 -4.7542 -3.94275 -2.08167e-17 
-0.32542 1.38778e-17 -2.82044 -1.97401 0 2.77556e-17 -0.183321 -0.971684 -11.8391 
-11.7478 -11.488 -11.8832 -10.9306 -11.3236 -9.55901 -9.41223 -10.141 -6.67476 
-5.71983 -8.18727 -8.94326 -6.57616 -5.63771 -5.99231 -5.41592 -7.1973 -1.45434 
-1.09987 -1.22849 -0.568077 -0.967464 -0.193245 -0.432181 -2.77556e-17 2.77556e-17 2.77556e-17 
-6.93889e-18 0 -0.00890651 0 6.93889e-18 -1.38778e-17 -1.50558 -0.355949 -0.380655 
-0.666193 -1.57797 -1.84769 -0.378322 -0.53737 -1.06688 -1.84983 -1.16753 -1.35114 
-2.11831 -1.03373 -2.33624 -1.04955 -2.67331 -3.71424 -1.60186 -1.94533 -6.59926 
-5.02169 -4.49439 -5.32607 -6.19561 -5.8999 -5.35803 -5.45857 -3.80684 -4.11776 
-4.48274 -4.23405 -4.62716 -3.67707 -3.35301 -4.29184 -4.81845 -5.34238 -4.79608 
-3.48003 -3.7531 -2.40776 -3.13781 -3.58656 -4.70961 -8.19055 -8.71181 -9.41379 
-7.44504 -12.3466 -11.2618 -11.7334 -12.0838 -11.2924 -10.4909 -6.14866 -5.55092 
-6.99499 -3.99235 -5.02116 -1.38778e-17 2.77556e-17 -2.82911 -1.94113 -0.758819 -0.894691 
-1.38778e-17 1.38778e-17 6.93889e-18 -11.0007 -10.5524 -11.2106 -11.0535 -11.245 -10.4023 
-9.52945 -8.72338 -8.28723 -5.03019 -6.64959 -4.48975 -4.71378 -5.53415 -4.584 
-4.39428 -1.1618 -0.359902 -0.39796 -0.0984194 -0.075783 1.38778e-17 -1.38778e-17 -3.46945e-18 
-1.04083e-17 0 0 0 -0.405973 -0.798349 -0.309869 0 2.77556e-17 
0 2.77556e-17 0 2.77556e-17 -0.739397 -0.660227 2.77556e-17 0 0 
-0.197119 -0.853424 -0.598361 -0.00544619 -0.634595 -0.62578 -0.332496 -0.978959 -0.51423 
-0.532811 -1.62284 -2.85946 -1.03673 -1.28332 -1.51289 -5.4381 -4.4541 -3.84589 
-4.22766 -4.45449 -3.68009 -2.71641 -3.9936 -4.65435 -2.8486 -3.2857 -3.44163 
-3.42889 -3.43557 -2.6833 -2.7804 -2.73077 -2.33467 -2.66911 -3.74926 -2.80814 
-2.69584 -3.64761 -2.15801 -1.19434 -1.89983 -2.37046 -4.18123 -7.22198 -7.7085 
-8.4964 -9.31253 -9.92099 -11.618 -10.9687 -11.0623 -10.9932 -10.3531 -6.50497 
-5.57012 -3.76012 -2.31467 -4.72818 -2.04607 1.38778e-17 -0.580127 -5.55112e-17 -9.73498 
-10.3632 -9.41268 -9.1683 -10.3059 -9.48544 -9.23943 -10.0277 -8.01953 -7.3781 
-5.99578 -5.64886 -4.16827 -3.74579 -3.55841 -4.16547 -3.12278 -3.63462 -0.240953 
2.77556e-17 2.77556e-17 2.77556e-17 0 2.77556e-17 0 -6.93889e-18 0 -6.93889e-18 
0 0 0 -0.0767145 0 0 1.38778e-17 2.77556e-17 -0.0892062 
0 -6.93889e-18 0 0 -8.67362e-19 2.77556e-17 5.55112e-17 -0.105207 8.67362e-19 
0 -1.38778e-17 -0.137708 -0.227929 0 -6.93889e-18 -2.77556e-17 -0.708258 -0.334374 
-1.30457 -0.609954 -0.44335 -0.440062 -4.15102 -3.64685 -3.59619 -2.94855 -3.43043 
-3.41673 -3.83836 -2.56462 -2.44921 -2.00646 -2.28417 -1.99834 -2.35196 -2.58683 
-2.31984 -1.90542 -2.02289 -2.30876 -2.16953 -2.01734 -1.96706 -1.51767 -2.7321 
-1.81119 -1.26138 -0.594801 -0.731651 -0.335054 -0.933757 -3.32248 -5.8123 -5.92193 
-6.24732 -7.32731 -6.89454 -8.50366 -7.91335 -9.72887 -9.95182 -11.264 -10.0919 
-10.244 -10.8377 -2.53547 -3.9518 -3.50155 -5.01538 -1.59937 -1.70767 -0.433632 
5.55112e-17 5.55112e-17 0 -8.81684 -9.86646 -9.79105 -8.66588 -9.23671 -8.64837 
-8.98578 -8.36564 -7.35612 -6.84118 -7.0841 -5.8506 -5.02309 -4.73635 -3.35352 
-4.42806 -2.95079 -2.79672 -2.59585 -1.87155 2.77556e-17 0 0 -1.38778e-17 
-1.38778e-17 -1.38778e-17 1.38778e-17 -1.38778e-17 -1.38778e-17 -1.38778e-17 0 0 1.38778e-17 
0 -0.235705 6.93889e-18 6.93889e-18 -0.108865 0 2.77556e-17 0 -0.094623 
-2.92154 -2.93508 -2.47239 -2.11043 -1.96397 -2.29752 -2.06417 -1.82504 -1.21793 
-0.81514 -1.36599 -1.28226 -0.917659 -1.46358 -1.09859 -1.10748 -1.15413 -0.649809 
-0.607803 -1.60215 -1.39406 -2.07515 -0.904447 -0.761169 -0.707623 -1.38778e-17 -1.38778e-17 
-0.329524 -0.354468 -2.08167e-17 1.38778e-17 4.16334e-17 -1.79872 -5.80467 -4.79405 -6.10638 
-6.89722 -7.63377 -8.92215 -9.79845 -8.58118 -9.24149 -9.97177 -8.97892 -9.03317 
-2.67428 -3.81777 -0.611974 -0.903664 -2.81649 -1.62438 5.55112e-17 0 5.55112e-17 
-8.32104 -8.35872 -8.53569 -7.57242 -8.00665 -7.63737 -7.07013 -7.3908 -8.45931 
-6.60342 -6.33134 -5.13088 -4.12513 -2.78834 -3.36676 -2.04988 -2.14702 -1.11902 
-1.10837 0 0 -1.38778e-17 -1.38778e-17 0 0 1.38778e-17 -1.7371 
-1.63831 -0.627193 -1.3344 -1.1221 -1.32285 -0.897164 -0.574186 -0.556434 -0.137603 
-0.623231 -0.831227 -0.461262 -0.151464 -0.685735 -0.739314 -0.935813 -0.185023 -0.0966348 
2.77556e-17 -1.38778e-17 -0.0943602 -0.175853 -0.251574 -0.185003 -0.812071 0 -1.38778e-17 
-1.38778e-17 0 2.77556e-17 2.77556e-17 -5.22711 -3.72529 -4.7758 -3.1392 -6.42755 
-5.96946 -5.35663 -8.48189 -7.37807 -6.91606 -8.33903 -8.26667 -7.23029 -8.98893 
-7.95904 -8.37878 5.55112e-17 -0.371669 0 -0.3672 -1.77177 -2.30566 -1.57016 
-0.771277 -7.5367 -7.23649 -6.85529 -6.08263 -6.43414 -5.57548 -6.4388 -5.46063 
-5.61663 -4.54656 -3.91205 -2.80245 -2.21336 -1.93102 -2.28141 -2.38191 -2.70445 
-1.40709 -0.561495 -0.459417 -1.03845 -1.23959 -0.996421 -0.760557 -0.681778 -0.475057 
-0.175973 -0.252028 -0.405803 -0.267143 -0.244763 -0.350909 -0.376829 -0.0465391 -0.153846 
-0.00782425 1.38778e-17 0 2.08167e-17 6.93889e-18 6.93889e-18 -1.38778e-17 1.38778e-17 6.93889e-18 
6.93889e-18 0 0 -0.382406 -2.08167e-17 1.38778e-17 0 0 1.38778e-17 
-1.38778e-17 0 6.93889e-18 -1.38778e-17 0 0 0 2.77556e-17 -1.38778e-17 
-0.465347 -1.38778e-17 -4.66272 -4.45528 -2.74568 -3.34375 -6.8842 -5.60074 -5.62714 
-4.09879 -4.60868 -7.59243 -6.91507 -7.66983 -7.32065 -7.50704 -6.83825 -7.38386 
2.77556e-17 0 0 0 0 0 -0.821271 -0.707559 -1.85972 
0 -6.53168 -6.51333 -6.15314 -5.10297 -5.42401 -5.1645 -5.48024 -4.68537 
-4.15129 -4.09124 -4.47313 -3.12552 -1.42421 -1.78881 -1.53327 -1.36572 -1.71505 
-2.62999 2.77556e-17 -0.239655 0 0 1.38778e-17 -1.38778e-17 -0.869893 -0.0951905 
-2.77556e-17 -4.16334e-17 -0.349965 6.93889e-18 3.46945e-18 -3.46945e-18 0 -1.38778e-17 0 
-1.38778e-17 1.38778e-17 -1.38778e-17 1.38778e-17 0 0 1.38778e-17 0 -8.67362e-19 
2.77556e-17 -1.38778e-17 -1.38778e-17 0 0 0 0 6.93889e-18 0 
-8.67362e-19 -1.38778e-17 -0.0518786 6.93889e-18 -2.49064 -2.98727 -7.05731 -6.37557 -5.70017 