# vtk DataFile Version 4.2
3D Slicer output. SPACE=LPS
ASCII
DATASET POLYDATA
FIELD FieldData 2
MaterialNames 1 2 string
mtl1
NO_MATERIAL

MaterialLibraries 1 1 string
CIIFD_vtkMRMLModelNodeF.mtl

POINTS 1781 float
-99.2336 1.0298 14.9442 -99.2483 1.10236 14.9122 -99.4103 1.81424 14.844 
-99.3487 1.37409 15.4244 -99.2273 0.98897 14.9556 -99.36 1.61414 14.6941 
-99.5307 2.08218 15.4226 -99.5903 2.35553 14.3932 -99.6908 2.55701 14.9291 
-99.4032 1.81039 14.6013 -99.2182 0.648576 15.4484 -99.3598 0.887836 15.9475 
-99.5133 1.6537 15.9865 -99.142 0.354574 15.1195 -99.7978 2.67131 15.5235 
-99.6421 2.22494 15.8586 -99.5521 2.24809 14.3792 -99.9555 3.05073 14.4091 
-99.5795 2.31926 14.3425 -99.6198 2.41404 14.305 -100.065 3.17622 15.0117 
-99.1241 0.194826 15.1694 -99.1477 0.101043 15.5315 -99.2608 0.236823 15.9473 
-99.4415 0.396508 16.4464 -99.5373 1.08129 16.4488 -99.6488 1.59023 16.5002 
-99.7619 2.09929 16.3599 -100.169 3.16758 15.629 -99.8184 2.52078 16.0094 
-100.021 2.84947 15.9572 -100.529 3.8562 14.3842 -99.8634 2.88267 14.1374 
-100.104 3.30458 14.0716 -100.529 3.6785 15.3058 -99.0814 -0.302573 15.3969 
-99.0789 -0.344865 15.4284 -99.1863 -0.301787 15.9538 -99.3416 -0.14562 16.3756 
-99.5872 -0.0791106 16.9248 -99.6748 0.673984 16.9159 -99.7779 1.28388 16.9084 
-99.8482 1.75984 16.8179 -100.056 2.60442 16.4028 -100.068 2.18321 16.8729 
-100.458 3.16318 16.2593 -100.446 3.42519 15.7916 -100.93 4.22097 14.904 
-101.17 4.58213 14.3387 -100.329 3.62114 14.0572 -100.514 3.88575 14.0664 
-100.612 4.01069 14.0741 -100.756 4.16153 14.0799 -101.08 4.20391 15.4891 
-100.743 3.68691 15.8903 -99.0778 -0.346759 15.4159 -99.0768 -0.362217 15.4261 
-99.0794 -0.852327 15.7578 -99.1082 -0.827703 15.9199 -99.3373 -0.723421 16.5558 
-99.6846 -0.754401 17.2586 -99.9231 -0.157433 17.5255 -99.8564 0.407248 17.3251 
-99.995 0.964748 17.3767 -100.181 1.67041 17.3446 -100.435 2.67731 16.8801 
-100.396 2.25169 17.2552 -101.031 3.63186 16.4179 -100.953 3.16845 16.9066 
-101.441 4.73147 14.9867 -101.674 5.09033 14.4015 -101.006 4.43892 14.0938 
-101.183 4.61889 14.1046 -101.329 4.7603 14.1413 -101.479 4.61224 15.4577 
-101.144 4.01129 16.0167 -101.579 4.46026 15.9085 -99.0691 -1.02879 15.8732 
-99.0735 -1.3215 16.0417 -99.1466 -1.40658 16.3682 -99.4524 -1.3244 17.0222 
-99.7961 -1.28977 17.5576 -100.137 -0.779258 17.882 -100.238 -0.0924087 17.9377 
-100.154 0.468729 17.7444 -100.48 1.09185 17.9223 -100.626 1.71623 17.82 
-100.583 2.09555 17.5683 -100.887 2.6175 17.4192 -101.519 4.04922 16.429 
-101.527 3.62084 16.9497 -101.442 3.13981 17.39 -102.01 5.31043 14.8523 
-101.911 4.99371 15.4942 -101.874 5.27249 14.3999 -101.633 5.06112 14.253 
-101.74 5.14898 14.306 -102.068 4.84577 16.0371 -102.041 4.47232 16.4748 
-99.0604 -1.54789 16.1641 -98.9957 -1.94644 16.3648 -98.9863 -2.07477 16.4237 
-99.2398 -1.93998 16.9126 -99.6097 -1.80157 17.4425 -100.068 -1.71161 17.9685 
-100.077 -1.2922 17.9028 -100.617 -0.859446 18.3743 -100.463 -1.34537 18.276 
-100.602 -0.305369 18.3281 -100.53 0.375097 18.1827 -101.021 0.741575 18.5172 
-101.078 1.55138 18.273 -101.001 2.1513 17.8874 -101.464 2.66755 17.8401 
-101.887 4.02561 16.8197 -101.789 3.44011 17.3571 -102.079 3.75545 17.2546 
-101.986 3.21398 17.7065 -102 5.37079 14.4829 -102.205 5.47766 14.6185 
-102.364 5.60898 14.8734 -102.554 5.62924 15.372 -102.389 5.24616 15.9015 
-102.56 5.06227 16.4111 -102.213 4.19836 16.9245 -102.533 4.59613 16.846 
-98.9626 -2.18108 16.4726 -99.1465 -2.42173 17.0827 -98.9803 -2.39823 16.7355 
-99.4318 -2.2992 17.4299 -99.8463 -2.24092 17.8989 -100.378 -2.1962 18.3817 
-100.468 -1.77006 18.3472 -100.973 -0.644578 18.6597 -100.969 -1.15286 18.6658 
-100.929 -1.78733 18.6831 -101.005 -0.232343 18.6719 -100.878 0.144868 18.5336 
-101.441 0.101341 18.9262 -101.463 0.706355 18.8604 -101.502 1.18512 18.7398 
-101.585 1.72765 18.5746 -101.5 2.15685 18.257 -101.987 2.6596 18.1818 
-102.527 4.16 17.2212 -102.498 3.67722 17.6163 -102.484 3.16366 18.0292 
-102.371 5.61554 14.7604 -102.484 5.6869 14.8505 -102.864 5.86411 15.1342 
-103.022 6.01353 15.473 -102.615 5.74852 14.9449 -102.943 5.6542 16.1595 
-102.921 5.87264 15.7469 -102.994 5.40333 16.5773 -103.05 5.07852 16.9294 
-102.901 4.57318 17.1874 -98.8875 -2.5336 16.6308 -98.9088 -2.85612 17.0481 
-99.2281 -2.73668 17.459 -98.8131 -2.8418 16.7686 -99.6087 -2.68672 17.8783 
-100.023 -2.62244 18.2518 -100.371 -2.80552 18.6331 -100.821 -2.37772 18.747 
-101.467 -0.746888 18.9717 -101.223 -0.38604 18.8336 -101.36 -1.3496 18.9092 
-101.379 -2.26356 19.0155 -101.498 -1.72043 18.9965 -102.133 0.206941 19.3014 
-101.968 -0.395691 19.2449 -101.933 0.845916 19.0809 -101.983 1.58901 18.8605 
-101.979 2.14367 18.5646 -102.523 2.58508 18.4865 -103.016 4.1383 17.566 
-102.9 3.59269 17.8928 -103.039 3.09555 18.2931 -103.035 6.01461 15.327 
-103.148 6.07493 15.4532 -103.224 6.07455 15.8641 -103.489 6.088 16.3551 
-103.467 5.69506 16.834 -103.419 4.76473 17.4352 -103.575 5.27571 17.2629 
-99.0362 -3.09522 17.5341 -98.693 -3.14076 16.9164 -98.6482 -3.25799 16.9704 
-98.7076 -3.48825 17.4383 -99.3766 -3.06141 17.9208 -99.8359 -2.99278 18.319 
-100.448 -3.28399 18.9673 -100.928 -2.82699 18.9678 -100.025 -3.24916 18.6759 
-101.927 -0.823576 19.2175 -101.868 -1.27162 19.1724 -101.549 -2.89116 19.265 
-102.015 -2.34101 19.2964 -101.928 -1.83725 19.2153 -102.603 0.253879 19.5041 
-102.505 -0.275554 19.4813 -102.488 0.752966 19.3726 -102.375 -0.903965 19.406 
-102.595 1.45692 19.1653 -102.391 2.02963 18.8161 -102.973 2.1563 18.8941 
-102.967 2.63045 18.602 -103.447 3.76257 17.9933 -103.529 4.30681 17.7339 
-103.687 3.19194 18.3828 -103.468 2.61933 18.6995 -103.336 6.14455 15.6665 
-103.547 6.25871 15.9249 -103.644 6.28782 16.026 -103.966 6.40861 16.4363 
-103.786 6.14901 16.7373 -103.982 5.67022 17.3362 -103.999 6.08252 17.0492 
-103.869 4.63806 17.7404 -104.047 5.13947 17.6247 -99.0477 -3.45123 17.9373 
-98.5404 -3.54241 17.0982 -98.7734 -3.77989 17.9348 -98.4426 -4.27861 17.9624 
-98.3739 -3.93163 17.3035 -98.3912 -3.87185 17.2508 -99.5241 -3.46055 18.4508 
-99.9643 -3.6661 18.9745 -100.485 -3.78467 19.3453 -100.967 -3.32219 19.2397 
-102.394 -1.50465 19.3918 -101.402 -3.41648 19.4583 -101.897 -3.33658 19.5686 
-102.262 -2.83253 19.4714 -102.624 -2.32264 19.4724 -102.365 -1.94565 19.3854 
-103.118 -0.0411711 19.6706 -102.952 0.64082 19.5623 -102.97 -0.784669 19.6126 
-102.849 1.083 19.4241 -102.917 -1.40897 19.5527 -103.009 1.32819 19.3794 
-103.36 1.56038 19.3053 -103.812 2.05072 19.0762 -103.969 4.22058 17.9475 
-104.106 3.70841 18.1995 -104.403 3.21132 18.4727 -103.991 2.81918 18.6454 
-104.097 2.45525 18.8622 -103.861 6.3813 16.258 -103.994 6.42298 16.3904 
-104.032 6.4375 16.4304 -104.161 6.4644 16.5508 -104.082 6.33841 16.8072 
-104.399 6.07603 17.3517 -104.513 5.65481 17.6396 -104.368 6.3724 17.0195 
-104.382 4.69861 17.9077 -104.71 5.19563 17.8703 -98.9725 -3.98475 18.4258 
-97.9574 -4.64444 17.4083 -97.9979 -4.58841 17.408 -97.9968 -4.91478 18.001 
-98.6005 -4.76018 18.7881 -98.2008 -4.94205 18.4186 -98.2473 -4.13879 17.3184 
-98.3669 -3.93142 17.2771 -99.4646 -4.00134 18.9387 -99.9019 -4.28218 19.4694 
-100.698 -4.3878 19.8873 -101.004 -3.75049 19.5332 -102.774 -1.85129 19.4962 
-101.492 -3.90277 19.79 -102.112 -3.81893 19.8645 -102.469 -3.34244 19.688 
-102.896 -2.84187 19.6006 -103.424 -2.1874 19.6078 -103.621 -0.339072 19.795 
-103.491 -0.759382 19.743 -103.666 0.119813 19.7888 -103.466 0.594974 19.6777 
-103.269 1.07953 19.521 -103.481 -1.35602 19.6796 -103.978 1.57603 19.3426 
-103.873 1.07718 19.558 -104.453 2.10823 19.0345 -104.345 1.74954 19.2257 
-104.591 4.20112 18.1164 -104.793 3.69149 18.3142 -104.464 2.7438 18.7145 
-104.928 2.96534 18.6048 -104.998 3.33192 18.4617 -104.557 2.43148 18.8713 
-104.321 6.49216 16.6976 -104.948 6.12692 17.5698 -104.7 6.37015 17.2638 
-105.105 5.65018 17.8488 -104.371 6.49661 16.7379 -104.613 6.51222 16.9365 
-105.14 4.79044 18.0675 -105.174 5.2734 17.9775 -99.0616 -4.39392 18.9758 
-97.9244 -4.68042 17.3898 -97.8408 -5.43562 18.4245 -97.5595 -5.44158 17.8478 
-98.1567 -5.4091 18.8892 -98.5534 -5.38429 19.339 -98.9923 -4.8957 19.3593 
-99.3745 -4.46188 19.3164 -99.9495 -4.88424 19.9708 -99.4497 -4.88991 19.7079 
-101.414 -4.45108 20.145 -101.094 -4.94051 20.4063 -100.385 -5.22359 20.3717 
-101.952 -4.29931 20.1379 -102.6 -3.82076 19.9116 -102.425 -4.18107 20.1003 
-103.075 -3.47998 19.7835 -103.484 -2.9773 19.6604 -104.347 -2.43065 19.6404 
-104.012 -2.81678 19.6383 -104.216 -1.77103 19.7041 -104.071 -0.264556 19.8552 
-103.986 -0.778303 19.8238 -103.911 -1.21058 19.7651 -104.006 0.130826 19.8331 
-103.978 0.489971 19.7526 -104.453 1.31597 19.4094 -104.525 0.694199 19.6464 
-104.973 2.2333 18.9191 -104.941 1.65962 19.1673 -105.335 4.14306 18.2484 
-105.539 3.52524 18.4176 -104.876 2.6096 18.7654 -105.375 3.09133 18.5521 
-105.424 2.57405 18.728 -105.552 6.05907 17.781 -105.371 6.38433 17.41 
-105.276 6.43544 17.3721 -105.008 6.4193 17.3737 -104.689 6.51271 16.9911 
-104.932 6.51057 17.1672 -105.844 5.50803 18.0202 -106.007 4.61504 18.2018 
-97.8783 -4.72234 17.343 -97.7792 -5.9714 18.9255 -97.4026 -6.07084 18.4212 
-97.083 -6.17143 17.9113 -97.1406 -5.80509 17.3989 -97.4897 -5.25392 17.2922 
-98.1864 -5.88054 19.3629 -99.0151 -5.56501 19.8647 -98.5232 -5.77695 19.6314 
-99.8911 -5.30043 20.2386 -99.5671 -5.28424 20.0572 -101.82 -4.86198 20.4926 
-101.387 -5.44155 20.7917 -100.875 -5.4213 20.6745 -100.488 -5.88345 20.8054 
-99.717 -5.80722 20.4307 -102.444 -4.60796 20.3698 -103.067 -4.26165 20.1388 
-103.547 -3.84916 19.8933 -103.614 -3.44254 19.7438 -103.94 -3.25091 19.6831 
-105.133 -2.18918 19.6498 -104.85 -2.82238 19.6127 -104.427 -2.82992 19.6289 
-104.48 -3.25305 19.6536 -104.921 -1.60478 19.7534 -104.411 -1.24259 19.8036 
-104.513 -0.724642 19.8653 -104.407 0.0889129 19.8262 -104.463 -0.323507 19.8758 
-105.03 1.03399 19.4191 -105.08 0.560969 19.6047 -104.956 0.143989 19.7535 
-105.562 1.91704 18.9553 -105.752 1.16868 19.2033 -105.95 3.96638 18.3267 
[...]
CELL_DATA 3161
FIELD FieldData 2
MaterialIds 1 3161 int
1 1 1 1 1 1 1 1 1 
1 1 1 1 1 1 1 1 1 
1 1 1 1 1 1 1 1 1 
1 1 1 1 1 1 1 1 1 
1 1 1 1 1 1 1 1 1 
1 1 1 1 1 1 1 1 1 
1 1 1 1 1 1 1 1 1 
1 1 1 1 1 1 1 1 1 
1 1 1 1 1 1 1 1 1 
1 1 1 1 1 1 1 1 1 
1 1 1 1 1 1 1 1 1 
1 1 1 1 1 1 1 1 1 
1 1 1 1 1 1 1 1 1 
1 1 1 1 1 1 1 1 1 
1 1 1 1 1 1 1 1 1 
1 1 1 1 1 1 1 1 1 
1 1 1 1 1 1 1 1 1 
1 1 1 1 1 1 1 1 1 
1 1 1 1 1 1 1 1 1 
1 1 1 1 1 1 1 1 1 
1 1 1 1 1 1 1 1 1 
1 1 1 1 1 1 1 1 1 
1 1 1 1 1 1 1 1 1 
1 1 1 1 1 1 1 1 1 
1 1 1 1 1 1 1 1 1 
1 1 1 1 1 1 1 1 1 
1 1 1 1 1 1 1 1 1 
1 1 1 1 1 1 1 1 1 
1 1 1 1 1 1 1 1 1 
1 1 1 1 1 1 1 1 1 
1 1 1 1 1 1 1 1 1 
1 1 1 1 1 1 1 1 1 
1 1 1 1 1 1 1 1 1 
1 1 1 1 1 1 1 1 1 
1 1 1 1 1 1 1 1 1 
1 1 1 1 1 1 1 1 1 
1 1 1 1 1 1 1 1 1 
1 1 1 1 1 1 1 1 1 
1 1 1 1 1 1 1 1 1 
1 1 1 1 1 1 1 1 1 
1 1 1 1 1 1 1 1 1 
1 1 1 1 1 1 1 1 1 
1 1 1 1 1 1 1 1 1 
1 1 1 1 1 1 1 1 1 
1 1 1 1 1 1 1 1 1 
1 1 1 1 1 1 1 1 1 
1 1 1 1 1 1 1 1 1 
1 1 1 1 1 1 1 1 1 
1 1 1 1 1 1 1 1 1 
1 1 1 1 1 1 1 1 1 
1 1 1 1 1 1 1 1 1 
1 1 1 1 1 1 1 1 1 
1 1 1 1 1 1 1 1 1 
1 1 1 1 1 1 1 1 1 
1 1 1 1 1 1 1 1 1 
1 1 1 1 1 1 1 1 1 
1 1 1 1 1 1 1 1 1 
1 1 1 1 1 1 1 1 1 
1 1 1 1 1 1 1 1 1 
1 1 1 1 1 1 1 1 1 
1 1 1 1 1 1 1 1 1 
1 1 1 1 1 1 1 1 1 
1 1 1 1 1 1 1 1 1 
1 1 1 1 1 1 1 1 1 
1 1 1 1 1 1 1 1 1 
1 1 1 1 1 1 1 1 1 
1 1 1 1 1 1 1 1 1 
1 1 1 1 1 1 1 1 1 
1 1 1 1 1 1 1 1 1 
1 1 1 1 1 1 1 1 1 
1 1 1 1 1 1 1 1 1 
1 1 1 1 1 1 1 1 1 
1 1 1 1 1 1 1 1 1 
1 1 1 1 1 1 1 1 1 
1 1 1 1 1 1 1 1 1 
1 1 1 1 1 1 1 1 1 
1 1 1 1 1 1 1 1 1 
1 1 1 1 1 1 1 1 1 
1 1 1 1 1 1 1 1 1 
1 1 1 1 1 1 1 1 1 
1 1 1 1 1 1 1 1 1 
1 1 1 1 1 1 1 1 1 
1 1 1 1 1 1 1 1 1 
1 1 1 1 1 1 1 1 1 
1 1 1 1 1 1 1 1 1 
1 1 1 1 1 1 1 1 1 
1 1 1 1 1 1 1 1 1 
1 1 1 1 1 1 1 1 1 
1 1 1 1 1 1 1 1 1 
1 1 1 1 1 1 1 1 1 
1 1 1 1 1 1 1 1 1 
1 1 1 1 1 1 1 1 1 
1 1 1 1 1 1 1 1 1 
1 1 1 1 1 1 1 1 1 
1 1 1 1 1 1 1 1 1 
1 1 1 1 1 1 1 1 1 
1 1 1 1 1 1 1 1 1 
1 1 1 1 1 1 1 1 1 
1 1 1 1 1 1 1 1 1 
1 1 1 1 1 1 1 1 1 
1 1 1 1 1 1 1 1 1 
1 1 1 1 1 1 1 1 1 
1 1 1 1 1 1 1 1 1 
1 1 1 1 1 1 1 1 1 
1 1 1 1 1 1 1 1 1 
1 1 1 1 1 1 1 1 1 
1 1 1 1 1 1 1 1 1 
1 1 1 1 1 1 1 1 1 
1 1 1 1 1 1 1 1 1 
1 1 1 1 1 1 1 1 1 
1 1 1 1 1 1 1 1 1 
1 1 1 1 1 1 1 1 1 
1 1 1 1 1 1 1 1 1 
1 1 1 1 1 1 1 1 1 
1 1 1 1 1 1 1 1 1 
1 1 1 1 1 1 1 1 1 
1 1 1 1 1 1 1 1 1 
1 1 1 1 1 1 1 1 1 
1 1 1 1 1 1 1 1 1 
1 1 1 1 1 1 1 1 1 
1 1 1 1 1 1 1 1 1 
1 1 1 1 1 1 1 1 1 
1 1 1 1 1 1 1 1 1 
1 1 1 1 1 1 1 1 1 
1 1 1 1 1 1 1 1 1 
1 1 1 1 1 1 1 1 1 
1 1 1 1 1 1 1 1 1 
1 1 1 1 1 1 1 1 1 
1 1 1 1 1 1 1 1 1 
1 1 1 1 1 1 1 1 1 
1 1 1 1 1 1 1 1 1 
1 1 1 1 1 1 1 1 1 
1 1 1 1 1 1 1 1 1 
1 1 1 1 1 1 1 1 1 
1 1 1 1 1 1 1 1 1 
1 1 1 1 1 1 1 1 1 
1 1 1 1 1 1 1 1 1 
1 1 1 1 1 1 1 1 1 
1 1 1 1 1 1 1 1 1 
1 1 1 1 1 1 1 1 1 
1 1 1 1 1 1 1 1 1 
1 1 1 1 1 1 1 1 1 
1 1 1 1 1 1 1 1 1 
1 1 1 1 1 1 1 1 1 
1 1 1 1 1 1 1 1 1 
1 1 1 1 1 1 1 1 1 
1 1 1 1 1 1 1 1 1 
1 1 1 1 1 1 1 1 1 
1 1 1 1 1 1 1 1 1 
1 1 1 1 1 1 1 1 1 
1 1 1 1 1 1 1 1 1 
1 1 1 1 1 1 1 1 1 
1 1 1 1 1 1 1 1 1 
1 1 1 1 1 1 1 1 1 
1 1 1 1 1 1 1 1 1 
1 1 1 1 1 1 1 1 1 
1 1 1 1 1 1 1 1 1 
1 1 1 1 1 1 1 1 1 
1 1 1 1 1 1 1 1 1 
1 1 1 1 1 1 1 1 1 
1 1 1 1 1 1 1 1 1 
1 1 1 1 1 1 1 1 1 
1 1 1 1 1 1 1 1 1 
1 1 1 1 1 1 1 1 1 
1 1 1 1 1 1 1 1 1 
1 1 1 1 1 1 1 1 1 
1 1 1 1 1 1 1 1 1 
1 1 1 1 1 1 1 1 1 
1 1 1 1 1 1 1 1 1 
1 1 1 1 1 1 1 1 1 
1 1 1 1 1 1 1 1 1 
1 1 1 1 1 1 1 1 1 
1 1 1 1 1 1 1 1 1 
1 1 1 1 1 1 1 1 1 
1 1 1 1 1 1 1 1 1 
1 1 1 1 1 1 1 1 1 
1 1 1 1 1 1 1 1 1 
1 1 1 1 1 1 1 1 1 
1 1 1 1 1 1 1 1 1 
1 1 1 1 1 1 1 1 1 
1 1 1 1 1 1 1 1 1 
1 1 1 1 1 1 1 1 1 
1 1 1 1 1 1 1 1 1 
1 1 1 1 1 1 1 1 1 
1 1 1 1 1 1 1 1 1 
1 1 1 1 1 1 1 1 1 
1 1 1 1 1 1 1 1 1 
1 1 1 1 1 1 1 1 1 
1 1 1 1 1 1 1 1 1 
1 1 1 1 1 1 1 1 1 
1 1 1 1 1 1 1 1 1 
1 1 1 1 1 1 1 1 1 
1 1 1 1 1 1 1 1 1 
1 1 1 1 1 1 1 1 1 
1 1 1 1 1 1 1 1 1 
1 1 1 1 1 1 1 1 1 
1 1 1 1 1 1 1 1 1 
1 1 1 1 1 1 1 1 1 
1 1 1 1 1 1 1 1 1 
1 1 1 1 1 1 1 1 1 
1 1 1 1 1 1 1 1 1 
1 1 1 1 1 1 1 1 1 
1 1 1 1 1 1 1 1 1 
1 1 1 1 1 1 1 1 1 
1 1 1 1 1 1 1 1 1 
1 1 1 1 1 1 1 1 1 
1 1 1 1 1 1 1 1 1 
1 1 1 1 1 1 1 1 1 
1 1 1 1 1 1 1 1 1 
1 1 1 1 1 1 1 1 1 
1 1 1 1 1 1 1 1 1 
1 1 1 1 1 1 1 1 1 
1 1 1 1 1 1 1 1 1 
1 1 1 1 1 1 1 1 1 
1 1 1 1 1 1 1 1 1 
1 1 1 1 1 1 1 1 1 
1 1 1 1 1 1 1 1 1 
1 1 1 1 1 1 1 1 1 
1 1 1 1 1 1 1 1 1 
1 1 1 1 1 1 1 1 1 
1 1 1 1 1 1 1 1 1 
1 1 1 1 1 1 1 1 1 
1 1 1 1 1 1 1 1 1 
1 1 1 1 1 1 1 1 1 
1 1 1 1 1 1 1 1 1 
1 1 1 1 1 1 1 1 1 
1 1 1 1 1 1 1 1 1 
1 1 1 1 1 1 1 1 1 
1 1 1 1 1 1 1 1 1 
1 1 1 1 1 1 1 1 1 
1 1 1 1 1 1 1 1 1 
1 1 1 1 1 1 1 1 1 
1 1 1 1 1 1 1 1 1 
1 1 1 1 1 1 1 1 1 
1 1 1 1 1 1 1 1 1 
1 1 1 1 1 1 1 1 1 
1 1 1 1 1 1 1 1 1 
1 1 1 1 1 1 1 1 1 
1 1 1 1 1 1 1 1 1 
1 1 1 1 1 1 1 1 1 
1 1 1 1 1 1 1 1 1 
1 1 1 1 1 1 1 1 1 
1 1 1 1 1 1 1 1 1 
1 1 1 1 1 1 1 1 1 
1 1 1 1 1 1 1 1 1 
1 1 1 1 1 1 1 1 1 
1 1 1 1 1 1 1 1 1 
1 1 1 1 1 1 1 1 1 
1 1 1 1 1 1 1 1 1 
1 1 1 1 1 1 1 1 1 
1 1 1 1 1 1 1 1 1 
1 1 1 1 1 1 1 1 1 
1 1 1 1 1 1 1 1 1 
1 1 1 1 1 1 1 1 1 
1 1 1 1 1 1 1 1 1 
1 1 1 1 1 1 1 1 1 
1 1 1 1 1 1 1 1 1 
1 1 1 1 1 1 1 1 1 
1 1 1 1 1 1 1 1 1 
1 1 1 1 1 1 1 1 1 
1 1 1 1 1 1 1 1 1 
1 1 1 1 1 1 1 1 1 
1 1 1 1 1 1 1 1 1 
1 1 1 1 1 1 1 1 1 
1 1 1 1 1 1 1 1 1 
1 1 1 1 1 1 1 1 1 
1 1 1 1 1 1 1 1 1 
1 1 1 1 1 1 1 1 1 
1 1 1 1 1 1 1 1 1 
1 1 1 1 1 1 1 1 1 
1 1 1 1 1 1 1 1 1 
1 1 1 1 1 1 1 1 1 
1 1 1 1 1 1 1 1 1 
1 1 1 1 1 1 1 1 1 
1 1 1 1 1 1 1 1 1 
1 1 1 1 1 1 1 1 1 
1 1 1 1 1 1 1 1 1 
1 1 1 1 1 1 1 1 1 
1 1 1 1 1 1 1 1 1 
1 1 1 1 1 1 1 1 1 
1 1 1 1 1 1 1 1 1 
1 1 1 1 1 1 1 1 1 
1 1 1 1 1 1 1 1 1 
1 1 1 1 1 1 1 1 1 
1 1 1 1 1 1 1 1 1 
1 1 1 1 1 1 1 1 1 
1 1 1 1 1 1 1 1 1 
1 1 1 1 1 1 1 1 1 
1 1 1 1 1 1 1 1 1 
1 1 1 1 1 1 1 1 1 
1 1 1 1 1 1 1 1 1 
1 1 1 1 1 1 1 1 1 
1 1 1 1 1 1 1 1 1 
1 1 1 1 1 1 1 1 1 
1 1 1 1 1 1 1 1 1 
1 1 1 1 1 1 1 1 1 
1 1 1 1 1 1 1 1 1 
1 1 1 1 1 1 1 1 1 
1 1 1 1 1 1 1 1 1 
1 1 1 1 1 1 1 1 1 
1 1 1 1 1 1 1 1 1 
1 1 1 1 1 1 1 1 1 
1 1 1 1 1 1 1 1 1 
1 1 1 1 1 1 1 1 1 
1 1 1 1 1 1 1 1 1 
1 1 1 1 1 1 1 1 1 
1 1 1 1 1 1 1 1 1 
1 1 1 1 1 1 1 1 1 
1 1 1 1 1 1 1 1 1 
1 1 1 1 1 1 1 1 1 
1 1 1 1 1 1 1 1 1 
1 1 1 1 1 1 1 1 1 
1 1 1 1 1 1 1 1 1 
1 1 1 1 1 1 1 1 1 
1 1 1 1 1 1 1 1 1 
1 1 1 1 1 1 1 1 1 
1 1 1 1 1 1 1 1 1 
1 1 1 1 1 1 1 1 1 
1 1 1 1 1 1 1 1 1 
1 1 1 1 1 1 1 1 1 
1 1 1 1 1 1 1 1 1 
1 1 1 1 1 1 1 1 1 
1 1 1 1 1 1 1 1 1 
1 1 1 1 1 1 1 1 1 
1 1 1 1 1 1 1 1 1 
1 1 1 1 1 1 1 1 1 
1 1 1 1 1 1 1 1 1 
1 1 1 1 1 1 1 1 1 
1 1 1 1 1 1 1 1 1 
1 1 1 1 1 1 1 1 1 
1 1 1 1 1 1 1 1 1 
1 1 1 1 1 1 1 1 1 
1 1 1 1 1 1 1 1 1 
1 1 1 1 1 1 1 1 1 
1 1 1 1 1 1 1 1 1 
1 1 1 1 1 1 1 1 1 
1 1 1 1 1 1 1 1 1 
1 1 1 1 1 1 1 1 1 
1 1 1 1 1 1 1 1 1 
1 1 1 1 1 1 1 1 1 
1 1 1 1 1 1 1 1 1 
1 1 1 1 1 1 1 1 1 
1 1 1 1 1 1 1 1 1 
1 1 1 1 1 1 1 1 1 
1 1 1 1 1 1 1 1 1 
1 1 1 1 1 1 1 1 1 
1 1 1 1 1 1 1 1 1 
1 1 1 1 1 1 1 1 1 
1 1 1 1 1 1 1 1 1 
1 1 1 1 1 1 1 1 1 
1 1 1 1 1 1 1 1 1 
1 1 
GroupIds 1 3161 float
0 0 0 0 0 0 0 0 0 
0 0 0 0 0 0 0 0 0 
0 0 0 0 0 0 0 0 0 
0 0 0 0 0 0 0 0 0 
0 0 0 0 0 0 0 0 0 
0 0 0 0 0 0 0 0 0 
0 0 0 0 0 0 0 0 0 
0 0 0 0 0 0 0 0 0 
0 0 0 0 0 0 0 0 0 
0 0 0 0 0 0 0 0 0 
0 0 0 0 0 0 0 0 0 
0 0 0 0 0 0 0 0 0 
0 0 0 0 0 0 0 0 0 
0 0 0 0 0 0 0 0 0 
0 0 0 0 0 0 0 0 0 
0 0 0 0 0 0 0 0 0 
0 0 0 0 0 0 0 0 0 
0 0 0 0 0 0 0 0 0 
0 0 0 0 0 0 0 0 0 
0 0 0 0 0 0 0 0 0 
0 0 0 0 0 0 0 0 0 
0 0 0 0 0 0 0 0 0 
0 0 0 0 0 0 0 0 0 
0 0 0 0 0 0 0 0 0 
0 0 0 0 0 0 0 0 0 
0 0 0 0 0 0 0 0 0 
0 0 0 0 0 0 0 0 0 
0 0 0 0 0 0 0 0 0 
0 0 0 0 0 0 0 0 0 
0 0 0 0 0 0 0 0 0 
0 0 0 0 0 0 0 0 0 
0 0 0 0 0 0 0 0 0 
0 0 0 0 0 0 0 0 0 
0 0 0 0 0 0 0 0 0 
0 0 0 0 0 0 0 0 0 
0 0 0 0 0 0 0 0 0 
0 0 0 0 0 0 0 0 0 
0 0 0 0 0 0 0 0 0 
0 0 0 0 0 0 0 0 0 
0 0 0 0 0 0 0 0 0 
0 0 0 0 0 0 0 0 0 
0 0 0 0 0 0 0 0 0 
0 0 0 0 0 0 0 0 0 
0 0 0 0 0 0 0 0 0 
0 0 0 0 0 0 0 0 0 
0 0 0 0 0 0 0 0 0 
0 0 0 0 0 0 0 0 0 
0 0 0 0 0 0 0 0 0 
0 0 0 0 0 0 0 0 0 
0 0 0 0 0 0 0 0 0 
0 0 0 0 0 0 0 0 0 
0 0 0 0 0 0 0 0 0 
0 0 0 0 0 0 0 0 0 
0 0 0 0 0 0 0 0 0 
0 0 0 0 0 0 0 0 0 
0 0 0 0 0 0 0 0 0 
0 0 0 0 0 0 0 0 0 
0 0 0 0 0 0 0 0 0 
0 0 0 0 0 0 0 0 0 
0 0 0 0 0 0 0 0 0 
0 0 0 0 0 0 0 0 0 
0 0 0 0 0 0 0 0 0 
0 0 0 0 0 0 0 0 0 
0 0 0 0 0 0 0 0 0 
0 0 0 0 0 0 0 0 0 
0 0 0 0 0 0 0 0 0 
0 0 0 0 0 0 0 0 0 
0 0 0 0 0 0 0 0 0 
0 0 0 0 0 0 0 0 0 
0 0 0 0 0 0 0 0 0 
0 0 0 0 0 0 0 0 0 
0 0 0 0 0 0 0 0 0 
0 0 0 0 0 0 0 0 0 
0 0 0 0 0 0 0 0 0 
0 0 0 0 0 0 0 0 0 
0 0 0 0 0 0 0 0 0 
0 0 0 0 0 0 0 0 0 
0 0 0 0 0 0 0 0 0 
0 0 0 0 0 0 0 0 0 
0 0 0 0 0 0 0 0 0 
0 0 0 0 0 0 0 0 0 
0 0 0 0 0 0 0 0 0 
0 0 0 0 0 0 0 0 0 
0 0 0 0 0 0 0 0 0 
0 0 0 0 0 0 0 0 0 
0 0 0 0 0 0 0 0 0 
0 0 0 0 0 0 0 0 0 
0 0 0 0 0 0 0 0 0 
0 0 0 0 0 0 0 0 0 
0 0 0 0 0 0 0 0 0 
0 0 0 0 0 0 0 0 0 
0 0 0 0 0 0 0 0 0 
0 0 0 0 0 0 0 0 0 
0 0 0 0 0 0 0 0 0 
0 0 0 0 0 0 0 0 0 
0 0 0 0 0 0 0 0 0 
0 0 0 0 0 0 0 0 0 
0 0 0 0 0 0 0 0 0 
0 0 0 0 0 0 0 0 0 
0 0 0 0 0 0 0 0 0 
0 0 0 0 0 0 0 0 0 
0 0 0 0 0 0 0 0 0 
0 0 0 0 0 0 0 0 0 
0 0 0 0 0 0 0 0 0 
0 0 0 0 0 0 0 0 0 
0 0 0 0 0 0 0 0 0 
0 0 0 0 0 0 0 0 0 
0 0 0 0 0 0 0 0 0 
0 0 0 0 0 0 0 0 0 
0 0 0 0 0 0 0 0 0 
0 0 0 0 0 0 0 0 0 
0 0 0 0 0 0 0 0 0 
0 0 0 0 0 0 0 0 0 
0 0 0 0 0 0 0 0 0 
0 0 0 0 0 0 0 0 0 
0 0 0 0 0 0 0 0 0 
0 0 0 0 0 0 0 0 0 
0 0 0 0 0 0 0 0 0 
0 0 0 0 0 0 0 0 0 
0 0 0 0 0 0 0 0 0 
0 0 0 0 0 0 0 0 0 
0 0 0 0 0 0 0 0 0 
0 0 0 0 0 0 0 0 0 
0 0 0 0 0 0 0 0 0 
0 0 0 0 0 0 0 0 0 
0 0 0 0 0 0 0 0 0 
0 0 0 0 0 0 0 0 0 
0 0 0 0 0 0 0 0 0 
0 0 0 0 0 0 0 0 0 
0 0 0 0 0 0 0 0 0 
0 0 0 0 0 0 0 0 0 
0 0 0 0 0 0 0 0 0 
0 0 0 0 0 0 0 0 0 
0 0 0 0 0 0 0 0 0 
0 0 0 0 0 0 0 0 0 
0 0 0 0 0 0 0 0 0 
0 0 0 0 0 0 0 0 0 
0 0 0 0 0 0 0 0 0 
0 0 0 0 0 0 0 0 0 
0 0 0 0 0 0 0 0 0 
0 0 0 0 0 0 0 0 0 
0 0 0 0 0 0 0 0 0 
0 0 0 0 0 0 0 0 0 
0 0 0 0 0 0 0 0 0 
0 0 0 0 0 0 0 0 0 
0 0 0 0 0 0 0 0 0 
0 0 0 0 0 0 0 0 0 
0 0 0 0 0 0 0 0 0 
0 0 0 0 0 0 0 0 0 
0 0 0 0 0 0 0 0 0 
0 0 0 0 0 0 0 0 0 
0 0 0 0 0 0 0 0 0 
0 0 0 0 0 0 0 0 0 
0 0 0 0 0 0 0 0 0 
0 0 0 0 0 0 0 0 0 
0 0 0 0 0 0 0 0 0 
0 0 0 0 0 0 0 0 0 
0 0 0 0 0 0 0 0 0 
0 0 0 0 0 0 0 0 0 
0 0 0 0 0 0 0 0 0 
0 0 0 0 0 0 0 0 0 
0 0 0 0 0 0 0 0 0 
0 0 0 0 0 0 0 0 0 
0 0 0 0 0 0 0 0 0 
0 0 0 0 0 0 0 0 0 
0 0 0 0 0 0 0 0 0 
0 0 0 0 0 0 0 0 0 
0 0 0 0 0 0 0 0 0 
0 0 0 0 0 0 0 0 0 
0 0 0 0 0 0 0 0 0 
0 0 0 0 0 0 0 0 0 
0 0 0 0 0 0 0 0 0 
0 0 0 0 0 0 0 0 0 
0 0 0 0 0 0 0 0 0 
0 0 0 0 0 0 0 0 0 
0 0 0 0 0 0 0 0 0 
0 0 0 0 0 0 0 0 0 
0 0 0 0 0 0 0 0 0 
0 0 0 0 0 0 0 0 0 
0 0 0 0 0 0 0 0 0 
0 0 0 0 0 0 0 0 0 
0 0 0 0 0 0 0 0 0 
0 0 0 0 0 0 0 0 0 
0 0 0 0 0 0 0 0 0 
0 0 0 0 0 0 0 0 0 
0 0 0 0 0 0 0 0 0 
0 0 0 0 0 0 0 0 0 
0 0 0 0 0 0 0 0 0 
0 0 0 0 0 0 0 0 0 
0 0 0 0 0 0 0 0 0 
0 0 0 0 0 0 0 0 0 
0 0 0 0 0 0 0 0 0 
0 0 0 0 0 0 0 0 0 
0 0 0 0 0 0 0 0 0 
0 0 0 0 0 0 0 0 0 
0 0 0 0 0 0 0 0 0 
0 0 0 0 0 0 0 0 0 
0 0 0 0 0 0 0 0 0 
0 0 0 0 0 0 0 0 0 
0 0 0 0 0 0 0 0 0 
0 0 0 0 0 0 0 0 0 
0 0 0 0 0 0 0 0 0 
0 0 0 0 0 0 0 0 0 
0 0 0 0 0 0 0 0 0 
0 0 0 0 0 0 0 0 0 
0 0 0 0 0 0 0 0 0 
0 0 0 0 0 0 0 0 0 
0 0 0 0 0 0 0 0 0 
0 0 0 0 0 0 0 0 0 
0 0 0 0 0 0 0 0 0 
0 0 0 0 0 0 0 0 0 
0 0 0 0 0 0 0 0 0 
0 0 0 0 0 0 0 0 0 
0 0 0 0 0 0 0 0 0 
0 0 0 0 0 0 0 0 0 
0 0 0 0 0 0 0 0 0 
0 0 0 0 0 0 0 0 0 
0 0 0 0 0 0 0 0 0 
0 0 0 0 0 0 0 0 0 
0 0 0 0 0 0 0 0 0 
0 0 0 0 0 0 0 0 0 
0 0 0 0 0 0 0 0 0 
0 0 0 0 0 0 0 0 0 
0 0 0 0 0 0 0 0 0 
0 0 0 0 0 0 0 0 0 
0 0 0 0 0 0 0 0 0 
0 0 0 0 0 0 0 0 0 
0 0 0 0 0 0 0 0 0 
0 0 0 0 0 0 0 0 0 
0 0 0 0 0 0 0 0 0 
0 0 0 0 0 0 0 0 0 
0 0 0 0 0 0 0 0 0 
0 0 0 0 0 0 0 0 0 
0 0 0 0 0 0 0 0 0 
0 0 0 0 0 0 0 0 0 
0 0 0 0 0 0 0 0 0 
0 0 0 0 0 0 0 0 0 
0 0 0 0 0 0 0 0 0 
0 0 0 0 0 0 0 0 0 
0 0 0 0 0 0 0 0 0 
0 0 0 0 0 0 0 0 0 
0 0 0 0 0 0 0 0 0 
0 0 0 0 0 0 0 0 0 
0 0 0 0 0 0 0 0 0 
0 0 0 0 0 0 0 0 0 
0 0 0 0 0 0 0 0 0 
0 0 0 0 0 0 0 0 0 
0 0 0 0 0 0 0 0 0 
0 0 0 0 0 0 0 0 0 
0 0 0 0 0 0 0 0 0 
0 0 0 0 0 0 0 0 0 
0 0 0 0 0 0 0 0 0 
0 0 0 0 0 0 0 0 0 
0 0 0 0 0 0 0 0 0 
0 0 0 0 0 0 0 0 0 
0 0 0 0 0 0 0 0 0 
0 0 0 0 0 0 0 0 0 
0 0 0 0 0 0 0 0 0 
0 0 0 0 0 0 0 0 0 
0 0 0 0 0 0 0 0 0 
0 0 0 0 0 0 0 0 0 
0 0 0 0 0 0 0 0 0 
0 0 0 0 0 0 0 0 0 
0 0 0 0 0 0 0 0 0 
0 0 0 0 0 0 0 0 0 
0 0 0 0 0 0 0 0 0 
0 0 0 0 0 0 0 0 0 
0 0 0 0 0 0 0 0 0 
0 0 0 0 0 0 0 0 0 
0 0 0 0 0 0 0 0 0 
0 0 0 0 0 0 0 0 0 
0 0 0 0 0 0 0 0 0 
0 0 0 0 0 0 0 0 0 
0 0 0 0 0 0 0 0 0 
0 0 0 0 0 0 0 0 0 
0 0 0 0 0 0 0 0 0 
0 0 0 0 0 0 0 0 0 
0 0 0 0 0 0 0 0 0 
0 0 0 0 0 0 0 0 0 
0 0 0 0 0 0 0 0 0 
0 0 0 0 0 0 0 0 0 
0 0 0 0 0 0 0 0 0 
0 0 0 0 0 0 0 0 0 
0 0 0 0 0 0 0 0 0 
0 0 0 0 0 0 0 0 0 
0 0 0 0 0 0 0 0 0 
0 0 0 0 0 0 0 0 0 
0 0 0 0 0 0 0 0 0 
0 0 0 0 0 0 0 0 0 
0 0 0 0 0 0 0 0 0 
0 0 0 0 0 0 0 0 0 
0 0 0 0 0 0 0 0 0 
0 0 0 0 0 0 0 0 0 
0 0 0 0 0 0 0 0 0 
0 0 0 0 0 0 0 0 0 
0 0 0 0 0 0 0 0 0 
0 0 0 0 0 0 0 0 0 
0 0 0 0 0 0 0 0 0 
0 0 0 0 0 0 0 0 0 
0 0 0 0 0 0 0 0 0 
0 0 0 0 0 0 0 0 0 
0 0 0 0 0 0 0 0 0 
0 0 0 0 0 0 0 0 0 
0 0 0 0 0 0 0 0 0 
0 0 0 0 0 0 0 0 0 
0 0 0 0 0 0 0 0 0 
0 0 0 0 0 0 0 0 0 
0 0 0 0 0 0 0 0 0 
0 0 0 0 0 0 0 0 0 
0 0 0 0 0 0 0 0 0 
0 0 0 0 0 0 0 0 0 
0 0 0 0 0 0 0 0 0 
0 0 0 0 0 0 0 0 0 
0 0 0 0 0 0 0 0 0 
0 0 0 0 0 0 0 0 0 
0 0 0 0 0 0 0 0 0 
0 0 0 0 0 0 0 0 0 
0 0 0 0 0 0 0 0 0 
0 0 0 0 0 0 0 0 0 
0 0 0 0 0 0 0 0 0 
0 0 0 0 0 0 0 0 0 
0 0 0 0 0 0 0 0 0 
0 0 0 0 0 0 0 0 0 
0 0 0 0 0 0 0 0 0 
0 0 0 0 0 0 0 0 0 
0 0 0 0 0 0 0 0 0 
0 0 0 0 0 0 0 0 0 
0 0 0 0 0 0 0 0 0 
0 0 0 0 0 0 0 0 0 
0 0 0 0 0 0 0 0 0 
0 0 0 0 0 0 0 0 0 
0 0 0 0 0 0 0 0 0 
0 0 0 0 0 0 0 0 0 
0 0 0 0 0 0 0 0 0 
0 0 0 0 0 0 0 0 0 
0 0 0 0 0 0 0 0 0 
0 0 0 0 0 0 0 0 0 
0 0 0 0 0 0 0 0 0 
0 0 0 0 0 0 0 0 0 
0 0 0 0 0 0 0 0 0 
0 0 0 0 0 0 0 0 0 
0 0 0 0 0 0 0 0 0 
0 0 0 0 0 0 0 0 0 
0 0 0 0 0 0 0 0 0 
0 0 0 0 0 0 0 0 0 
0 0 0 0 0 0 0 0 0 
0 0 0 0 0 0 0 0 0 
0 0 0 0 0 0 0 0 0 
0 0 0 0 0 0 0 0 0 
0 0 0 0 0 0 0 0 0 
0 0 0 0 0 0 0 0 0 
0 0 
POINT_DATA 1781
SCALARS scalars float
LOOKUP_TABLE default
0 3.46945e-18 -0.22349 -0.57545 2.08167e-17 2.77556e-17 -0.869354 -0.0626189 -0.633343 
0 -0.396964 -0.949448 -1.2177 1.38778e-17 -1.23701 -1.33751 -6.93889e-18 -0.308951 
-6.93889e-18 0 -0.931253 -1.38778e-17 -0.313854 -0.76249 -1.3084 -1.50549 -1.70358 
-1.76682 -1.55096 -1.6241 -1.74282 -0.320066 0 0 -1.2528 1.73472e-18 
-0.0119628 -0.480617 -0.940772 -1.48353 -1.89795 -2.04345 -2.09676 -2.06726 -2.34168 
-2.22383 -1.75247 -0.822504 -0.238003 -2.77556e-17 0 0 -1.38778e-17 -1.41658 
-1.84668 1.73472e-18 0 0 -0.15214 -0.783988 -1.47107 -2.04358 -2.14262 
-2.49511 -2.66044 -2.63874 -2.8154 -2.4079 -2.95407 -0.827851 -0.124285 0 
2.77556e-17 0 -1.29979 -1.9698 -1.74225 1.38778e-17 1.38778e-17 -0.260044 -0.959224 
-1.56901 -2.17008 -2.53154 -2.60915 -3.19656 -3.27033 -3.11981 -3.27057 -2.39998 
-3.01403 -3.5236 -0.336091 -1.04487 0 -1.38778e-17 0 -1.50966 -2.07142 
0 1.38778e-17 -2.08167e-17 -0.570091 -1.22894 -1.9235 -1.98994 -2.78451 -2.48429 
-2.92657 -3.0619 -3.71843 -3.84174 -3.59435 -3.91641 -2.63987 -3.43171 -3.0993 
-3.80272 2.08167e-17 0 -0.0990958 -0.424766 -1.09433 -1.50818 -2.54444 -2.10741 
-6.93889e-18 -0.532309 -0.168661 -0.996263 -1.6181 -2.32582 -2.44184 -3.27194 -3.13528 
-2.98568 -3.43293 -3.4013 -3.98982 -4.18938 -4.3369 -4.38412 -4.15562 -4.47729 
-2.64937 -3.25027 -3.8844 0 6.93889e-18 2.77556e-17 -0.116303 1.38778e-17 -0.800461 
-0.421529 -1.19971 -1.62013 -2.19667 0 -0.27854 -0.810209 0 -1.373 
-1.92792 -2.41801 -2.85961 -3.77836 -3.62914 -3.52372 -3.45898 -3.61212 -4.72045 
-4.39297 -4.67609 -4.81955 -4.66756 -4.58399 -2.7144 -3.35848 -3.94184 0 
0 -0.230421 -0.407202 -0.972101 -2.03497 -1.49294 -0.70142 6.93889e-18 2.08167e-17 
-0.382957 -1.21263 -1.81377 -2.68431 -3.0436 -2.18541 -4.23987 -4.07411 -3.69905 
-4.1129 -4.05485 -5.18462 -4.95263 -5.18747 -4.66548 -5.39874 -5.09036 -5.04241 
-4.50125 -3.14176 -2.53701 -3.75961 -4.44477 0 -1.38778e-17 -2.77556e-17 -0.0545599 
-0.483039 -1.09685 -0.627456 -2.17778 -1.65189 -0.984929 1.38778e-17 -0.787251 -0.613753 
-0.0262847 0 -1.6751 -2.34117 -2.96312 -3.2439 -4.56637 -3.71334 -4.16171 
-4.38565 -4.70293 -4.48153 -5.57352 -5.58555 -5.26122 -5.58196 -5.08184 -5.75598 
-5.64857 -4.99175 -2.60843 -3.1319 -3.578 -4.11431 -4.46766 6.93889e-18 6.93889e-18 
6.93889e-18 0 -0.278842 -0.64988 -1.08858 -0.261062 -2.0662 -1.51542 -1.28379 
-3.46945e-17 -1.38778e-17 -0.651932 -1.4828 -1.0759 3.46945e-18 -3.46945e-18 -1.98243 -2.6719 
-3.51418 -3.4682 -4.88125 -4.00705 -4.5344 -4.68717 -4.97524 -5.44588 -5.95782 
-5.74555 -6.09369 -6.00902 -5.93083 -5.61128 -5.41821 -5.95426 -4.67366 -5.08152 
-2.52438 -2.96623 -4.03176 -3.6202 -3.23667 -4.30652 -6.93889e-18 -0.520153 -0.269378 
-0.978202 -6.93889e-18 -6.93889e-18 -1.79203 -1.32469 -1.80114 2.77556e-17 -1.27176 -0.757494 
-1.67782 -2.14767 -2.17505 -2.25658 -3.16704 -2.68506 -4.21086 -4.22609 -3.80319 
-4.60253 -4.95551 -4.94859 -5.24578 -5.50242 -6.24518 -5.94641 -6.19556 -6.35972 
-6.18113 -6.02651 -6.38294 -6.40563 -5.46094 -6.03518 -4.31545 -4.89217 -2.33395 
-2.82862 -3.99057 -3.3087 -3.78189 -0.437783 1.38778e-17 0 -0.171671 1.38778e-17 
0 -0.869548 -1.62469 6.93889e-18 -1.53179 -0.89867 -0.295593 -0.0591496 -0.314044 
-2.13175 -2.81816 -2.55829 -3.44151 -3.12588 -4.79037 -4.79787 -4.37666 -4.37957 
-3.66669 -5.16191 -5.50634 -5.73565 -5.67781 -5.91743 -6.86371 -6.67921 -6.30763 
-6.38098 -6.83875 -6.45863 -6.64263 -6.65956 -6.67327 -5.47097 -5.91965 -6.37615 
-4.36096 -5.0218 -2.24677 -3.27456 -2.6698 -3.87227 -0.287004 -0.0525272 1.38778e-17 
-1.38778e-17 -0.858552 -0.423515 -0.253725 -1.43136 -1.96593 0 -1.2452 -1.91389 
-0.473585 0 -2.77556e-17 -0.0154352 -6.93889e-18 0 0 2.77556e-17 -2.61804 
-3.34547 -5.10784 -5.41206 -4.6633 -5.34263 -4.85147 -4.26314 -4.38588 -3.86446 
-5.73789 -6.199 -6.20211 -6.19365 -6.58283 -6.16829 -6.19981 -6.57206 -6.94756 
-6.83309 -6.59335 -6.91522 -6.96541 -6.90885 -5.64193 -6.14958 -6.53704 -4.45931 
-4.83448 -5.27492 -5.49615 -3.26636 -2.2953 -2.8876 -4.35711 -4.15489 -3.67627 
6.93889e-18 0 6.93889e-18 0 -0.479287 -1.17504 -0.266448 2.08167e-17 0 
6.93889e-18 -1.71846 -1.07207 -1.56844 -1.81926 -2.46161 -0.448456 -1.38778e-17 -2.77556e-17 
0 -3.09767 -3.60071 -5.92805 -5.8557 -5.19371 -4.16274 -4.4763 -4.00388 
-3.85373 -3.51742 -6.31689 -6.90725 -6.56927 -6.72887 -6.68156 -5.88843 -6.06745 
-5.77864 -5.66902 -5.7374 -6.23515 -7.01952 -7.35943 -7.04119 -6.19169 -6.69401 
-5.92392 -6.04657 -4.66084 -5.01784 -5.57131 -2.4496 -2.03426 -3.20258 -2.53625 
-4.38354 -3.69159 -4.15482 -0.360144 -0.849027 -1.38778e-17 0 -0.12309 -1.69309 
-1.61469 0 -6.93889e-18 -1.23387 -0.613779 -1.92711 -2.98762 -2.55282 5.55112e-17 
2.77556e-17 2.77556e-17 -3.05257 -6.27794 -5.57395 -4.74292 -3.83348 -3.65152 -4.1299 
-3.17687 -2.76751 -6.81634 -6.60121 -7.2999 -7.55547 -7.57903 -7.26767 -6.53112 
-5.36562 -5.42448 -6.03247 -5.44657 -5.23674 -5.18745 -5.13518 -5.70016 -6.88898 
-7.07977 -7.49882 -5.46446 -4.52419 -4.48244 -4.77699 -4.52238 -3.0909 -2.30959 
-3.99578 -3.69583 -3.57128 -0.26092 2.77556e-17 -0.600024 -1.20051 -1.41498 0 
-1.82041 -1.4149 -0.77929 0 -0.175619 -2.0201 -2.31586 -1.99092 -2.5791 
-6.1421 -5.34551 -5.85215 -5.03208 -4.59115 -4.13713 -3.45786 -3.19174 -2.51323 
-2.29935 -2.17148 -6.85215 -6.4273 -7.67241 -7.75748 -7.08904 -6.75368 -6.5152 
-4.86073 -4.73635 -5.00288 -5.607 -6.01614 -5.0733 -4.87363 -4.72454 -4.46682 
-7.12094 -6.55506 -4.14874 -4.03866 -3.24399 -2.65013 -2.09871 -3.41014 -3.62408 
-3.05549 -0.184584 0 -1.38778e-17 -0.619316 -1.97472 -1.46567 -1.05391 -1.69318 
-1.38646 -0.911828 -0.349149 1.38778e-17 1.38778e-17 -2.77556e-17 -1.57444 -1.55473 -1.59992 
-5.33886 -4.80526 -6.08673 -5.7219 -4.12519 -3.62402 -3.18627 -2.87708 -2.72319 
-2.15812 -1.78289 -1.64824 -6.26664 -7.75372 -7.40287 -6.6086 -6.91824 -6.54871 
-4.43155 -4.27212 -4.12957 -4.27221 -5.39834 -6.04398 -4.67043 -4.31581 -3.98925 
-7.14886 -6.59016 -3.58884 -3.56553 -2.70691 -2.93645 -2.48635 -3.19742 -3.02624 
-3.32409 -2.50374 -2.68636 -0.0904007 -1.38778e-17 1.38778e-17 -0.871816 -0.331169 -1.97753 
-1.53482 -0.574976 -1.02941 -0.969021 0 -1.38778e-17 -1.0342 -1.10317 -5.10035 
-4.84217 -4.24332 -4.2914 -5.38225 -6.0691 -3.61037 -3.59092 -3.11853 -2.69999 
-2.28283 -1.69406 -1.2143 -1.23977 -7.26628 -7.44167 -7.38398 -6.30815 -6.73765 
-3.85547 -3.87091 -3.63667 -3.77887 -5.14969 -5.65993 -4.90224 -5.94716 -4.0123 
-4.48007 -3.49475 -6.68712 -3.38513 -3.15662 -2.24904 -2.47365 -2.73391 -2.28229 
-2.83546 -2.98361 -2.08542 -2.33873 -2.43561 -0.0705254 0 0 0 