# vtk DataFile Version 4.2
3D Slicer output. SPACE=LPS
ASCII
DATASET POLYDATA
POINTS 11028 float
144.083 -12.2131 -44.2332 144.049 -12.7381 -44.2475 143.064 -12.0866 -44.8059 
143.814 -11.7631 -44.3645 143.428 -11.9131 -44.6166 144.511 -12.371 -43.9564 
144.449 -11.9131 -43.9178 143.527 -12.613 -44.5441 144.332 -13.2295 -44.0479 
144.018 -12.9553 -44.2613 144.385 -13.2043 -44.0145 143.914 -12.8832 -44.3219 
143.844 -12.8325 -44.369 143.359 -12.4995 -44.6389 143.171 -11.6131 -44.7829 
142.939 -12.2247 -44.8687 142.713 -12.0821 -44.9854 142.545 -11.7502 -45.0811 
143.368 -11.3131 -44.6078 143.9 -11.4631 -44.2251 145.086 -12.5881 -43.5155 
144.941 -12.9631 -43.6453 144.886 -12.0976 -43.5851 144.682 -11.6131 -43.6206 
144.382 -13.2678 -44.0109 144.936 -13.6621 -43.5878 145.259 -13.5498 -43.3702 
142.907 -11.1614 -44.8778 142.471 -11.1506 -45.1165 142.365 -11.8609 -45.1698 
142.02 -11.2756 -45.3186 143.475 -11.0131 -44.4245 144.227 -11.1729 -43.8313 
145.551 -13.1131 -43.1962 145.866 -12.9907 -42.9246 145.914 -12.7381 -42.8221 
145.259 -12.0231 -43.2191 144.922 -11.4487 -43.3235 145.086 -13.7746 -43.4695 
145.185 -13.9333 -43.3668 145.304 -13.8631 -43.2851 146.115 -13.5631 -42.754 
142.332 -10.4509 -45.0438 142.785 -10.4194 -44.698 141.949 -10.5631 -45.3109 
142.02 -11.6506 -45.3287 141.74 -11.4797 -45.4592 141.495 -11.1631 -45.5905 
141.627 -10.7131 -45.5072 143.575 -10.7807 -44.239 144.114 -10.818 -43.7578 
146.527 -13.4131 -42.3842 146.055 -12.5057 -42.6104 146.805 -13.2631 -42.0693 
145.576 -11.7637 -42.7702 144.146 -10.4298 -43.4805 144.987 -10.9543 -42.9524 
145.336 -14.0359 -43.2496 145.893 -14.402 -42.8179 146.129 -14.372 -42.6488 
146.479 -14.0881 -42.4134 146.532 -13.7131 -42.4008 141.922 -10.1131 -45.2082 
142.965 -10.0787 -44.3497 142.07 -9.68195 -44.8829 141.022 -10.4131 -45.7906 
141.353 -10.0984 -45.5528 141.521 -11.3541 -45.5738 141.215 -11.1631 -45.7123 
141.027 -10.7131 -45.7946 146.997 -13.7881 -41.9575 146.914 -13.0543 -41.8777 
146.488 -12.3522 -42.0555 145.377 -10.8198 -42.4057 146.056 -11.5951 -42.0955 
144.659 -10.4098 -42.9222 144.05 -9.82186 -43.1501 143.027 -9.39358 -43.8134 
145.288 -10.2154 -42.0394 146.002 -14.4955 -42.7317 146.669 -14.9618 -42.1812 
146.248 -14.6717 -42.5333 146.796 -14.8006 -42.0929 146.084 -14.5543 -42.6703 
146.844 -14.1631 -42.1105 141.278 -9.68799 -45.4395 141.664 -9.65156 -45.1702 
142.229 -9.39206 -44.5564 141.621 -9.15305 -44.8852 140.226 -10.5687 -46.0889 
140.771 -10.1131 -45.8594 140.735 -9.84138 -45.8064 140.999 -11.0311 -45.8063 
147.31 -14.4631 -41.6739 147.672 -14.1631 -41.3055 147.469 -13.7131 -41.4467 
146.941 -12.2021 -41.4099 147.293 -12.9631 -41.3844 147.942 -13.6565 -40.8399 
146.613 -11.7769 -41.5688 145.929 -10.9332 -41.7933 144.325 -9.67856 -42.744 
144.94 -9.53881 -41.8948 143.312 -8.9846 -43.223 144.136 -9.20818 -42.5494 
142.56 -8.55146 -43.595 141.976 -8.75761 -44.3124 146.16 -10.4514 -41.1001 
145.644 -9.9312 -41.3486 146.908 -15.1447 -41.9489 147.201 -15.3564 -41.674 
147.32 -15.0631 -41.6186 140.599 -9.36106 -45.6771 140.929 -9.06998 -45.3195 
140.992 -8.18571 -44.6874 141.489 -8.24018 -44.3717 140.476 -10.7645 -45.9974 
140.224 -10.6343 -46.0957 140.145 -10.1131 -46.0953 140.134 -10.5865 -46.1222 
139.362 -10.0777 -46.3395 139.979 -9.66389 -46.0957 139.953 -9.28813 -46.0128 
147.916 -14.6131 -41.0753 148.094 -14.1631 -40.8202 147.528 -12.6843 -40.9253 
146.788 -11.461 -41.0839 147.537 -12.3298 -40.6736 148.249 -13.4848 -40.3631 
148.839 -14.2786 -39.8813 148.765 -14.0131 -39.8911 144.632 -8.85074 -41.6223 
145.243 -9.04173 -41.0241 143.147 -8.43815 -42.9177 143.475 -8.15864 -42.274 
142.096 -7.87717 -43.5016 141.93 -8.38029 -44.0843 146.539 -10.4065 -40.475 
145.899 -9.49914 -40.5565 147.394 -15.5024 -41.4659 147.67 -15.3631 -41.2355 
147.91 -14.9131 -41.0695 140.234 -8.74627 -45.5833 140.036 -7.81109 -45.0889 
139.938 -7.24116 -44.7455 140.807 -7.4353 -44.2868 141.645 -7.88022 -43.9509 
139.345 -10.1234 -46.3499 138.72 -9.66313 -46.5118 139.206 -9.51313 -46.3663 
139.257 -9.19518 -46.3095 139.535 -8.94065 -46.1036 148.495 -14.6131 -40.4171 
148.265 -13.0214 -40.0862 147.474 -11.72 -40.2478 148.207 -12.5239 -39.8158 
148.845 -13.7143 -39.6044 149.011 -14.7769 -39.7564 149.3 -14.7631 -39.3078 
149.365 -14.3897 -39.0733 143.869 -7.68624 -41.3074 144.483 -7.9275 -40.7944 
145.007 -8.45187 -40.7211 145.627 -8.61397 -40.021 142.115 -7.37684 -42.9966 
142.685 -7.2859 -42.2882 143.229 -7.28414 -41.6785 141.204 -7.26902 -43.8064 
147.237 -10.698 -39.6548 146.486 -9.39536 -39.5738 147.602 -15.6553 -41.262 
147.789 -15.7946 -41.0443 147.99 -15.6631 -40.8529 148.399 -15.4381 -40.4775 
148.462 -14.9131 -40.4821 139.476 -8.049 -45.6094 138.76 -6.93506 -45.317 
139.853 -6.75016 -44.4053 139.082 -6.6612 -44.8949 140.589 -6.66889 -43.797 
138.767 -9.80269 -46.5105 138.636 -9.73026 -46.547 138.034 -9.37403 -46.6948 
138.645 -9.21313 -46.4968 138.958 -8.88631 -46.3258 139.146 -8.47889 -46.0645 
138.945 -8.61313 -46.2231 148.838 -15.0631 -40.028 148.511 -12.8916 -39.6064 
147.963 -11.6523 -39.3962 148.727 -12.3327 -38.693 148.924 -13.3381 -39.2314 
149.493 -13.9388 -38.6033 149.499 -15.3631 -39.136 149.714 -14.8421 -38.6775 
143.487 -7.06859 -41.1268 144.014 -7.13481 -40.4637 144.974 -7.84335 -40.0885 
144.641 -7.38755 -39.9744 146.446 -8.78721 -38.9297 145.709 -7.63191 -38.6497 
145.178 -7.43793 -39.2663 141.866 -6.79067 -42.6383 141.067 -6.81313 -43.5064 
142.597 -6.68374 -41.7034 147.375 -10.0811 -38.7743 148.145 -10.7743 -38.2014 
147.372 -9.61931 -38.2814 146.85 -8.80834 -38.2915 148.031 -15.967 -40.7773 
148.557 -16.1979 -40.2134 148.381 -16.2234 -40.3908 148.684 -15.3631 -40.1946 
149.128 -16.0473 -39.5756 138.699 -7.47908 -45.7112 137.871 -6.43387 -45.4988 
138.355 -6.35531 -45.1564 139.72 -6.27728 -44.0389 140.189 -6.39194 -43.8219 
138.654 -6.11703 -44.727 138.809 -5.84922 -44.3326 140.672 -6.12822 -43.1211 
138.038 -9.40036 -46.6966 137.975 -9.3641 -46.7125 137.775 -8.76313 -46.7134 
138.345 -8.91313 -46.5328 137.445 -8.91313 -46.8377 138.416 -8.43267 -46.3704 
138.504 -7.8858 -46.0605 149.157 -15.5131 -39.6087 149.06 -13.0959 -38.791 
148.551 -11.4745 -38.1679 149.564 -12.9587 -37.6435 149.217 -12.2765 -37.6473 
148.855 -12.0581 -38.1217 149.937 -14.4663 -38.0847 149.72 -13.5603 -37.8833 
150.303 -14.2309 -37.1986 149.936 -15.3631 -38.4674 149.868 -15.9631 -38.6447 
149.523 -15.9631 -39.1141 150.241 -15.2933 -37.8814 150.282 -14.7631 -37.5636 
143.173 -6.64542 -40.99 143.916 -6.79445 -40.1742 144.544 -6.62041 -39.0478 
146.454 -8.16252 -38.1659 145.115 -6.49865 -38.0999 146.051 -7.37799 -37.7609 
141.412 -5.81937 -41.9799 141.09 -6.0859 -42.6218 141.951 -5.91535 -41.4778 
142.626 -5.98494 -40.8088 148.084 -9.87064 -37.3053 148.831 -11.2299 -37.3779 
148.589 -10.5655 -37.136 147.368 -8.87102 -37.3923 146.756 -8.10172 -37.5372 
148.595 -16.3622 -40.156 148.943 -16.619 -39.7179 149.101 -16.5631 -39.5307 
137.781 -7.0224 -45.9178 137.142 -6.66615 -46.0057 137.068 -6.08181 -45.6295 
137.662 -5.83123 -45.1526 138.91 -5.37739 -43.7655 140.184 -5.87227 -43.2816 
137.865 -5.25282 -44.4582 140.203 -5.51814 -42.8607 140.608 -5.26382 -42.1298 
137.478 -9.07856 -46.8423 136.995 -8.50063 -46.8605 137.612 -8.16313 -46.6116 
137.145 -8.16313 -46.7653 138.045 -8.62995 -46.5895 137.263 -8.95804 -46.8758 
137.83 -7.84507 -46.3794 150.268 -13.3122 -36.4654 149.801 -12.4409 -36.5907 
149.417 -11.7456 -36.741 150.207 -13.8734 -37.1314 150.727 -14.8552 -36.6899 
150.816 -14.3082 -36.1086 150.202 -16.0381 -38.1423 150.258 -15.6631 -37.9807 
149.767 -16.5468 -38.7242 150.159 -16.5631 -38.2046 150.526 -15.9631 -37.5189 
150.522 -15.2205 -37.2581 143.281 -5.95159 -39.9002 143.825 -5.8653 -39.0408 
144.511 -5.65217 -37.8455 145.55 -6.36013 -37.2096 144.933 -5.62997 -37.2026 
146.35 -7.24769 -37.0477 141.364 -5.30685 -41.419 142.088 -5.47959 -40.7544 
143.035 -5.36885 -39.4114 148.651 -10.0078 -36.2979 147.712 -8.6768 -36.4659 
149.146 -11.1174 -36.6263 146.932 -7.84103 -36.8216 148.993 -16.6697 -39.6431 
149.059 -16.7053 -39.5671 149.294 -16.854 -39.242 149.569 -17.0185 -38.8773 
137.076 -7.33358 -46.4453 136.576 -6.50351 -46.1472 136.564 -6.88923 -46.3915 
135.947 -6.04399 -46.0742 136.149 -5.55388 -45.6244 136.438 -5.095 -45.1284 
137.46 -5.36994 -44.8462 137.765 -4.69916 -43.9358 139.105 -5.08408 -43.2769 
137.454 -4.91763 -44.3984 139.347 -4.58084 -42.4354 140.383 -4.62957 -41.5064 
141.195 -4.92319 -41.1064 136.933 -8.77618 -46.909 136.466 -8.50682 -46.9467 
136.545 -8.01313 -46.8735 137.152 -7.70776 -46.6041 136.695 -7.71313 -46.7624 
150.816 -13.7987 -35.6419 150.508 -13.0818 -35.672 149.999 -12.1263 -35.7998 
149.245 -10.8046 -35.9969 150.962 -15.4839 -36.5213 150.95 -14.766 -36.1637 
151.278 -15.4381 -35.8438 151.208 -14.5649 -35.3615 150.411 -16.4332 -37.8064 
149.696 -17.12 -38.6892 150.095 -17.0131 -38.1965 150.574 -16.8722 -37.5163 
150.799 -16.4721 -37.081 150.839 -15.7695 -36.8509 143.89 -4.82082 -37.601 
144.496 -4.57875 -36.5466 146.137 -6.30715 -36.2539 145.695 -5.77301 -36.3103 
145.116 -4.94027 -36.1264 141.516 -5.02854 -40.8572 141.641 -4.82584 -40.3659 
141.197 -4.15374 -39.9139 143.15 -4.72664 -38.4115 142.562 -4.68945 -39.0242 
148.123 -8.95413 -35.9472 149.158 -10.256 -35.4216 148.706 -9.22007 -35.0366 
147.381 -7.66568 -35.756 146.66 -6.91428 -36.0953 136.571 -7.41229 -46.6632 
135.514 -6.27986 -46.3967 136.159 -7.03813 -46.5953 134.979 -5.48772 -46.0766 
134.88 -4.59452 -45.3988 135.312 -4.16365 -44.8058 136.548 -4.85846 -44.8618 
137.074 -4.17465 -43.8037 137.957 -4.27553 -43.2562 138.578 -4.57146 -43.1229 
136.861 -4.56997 -44.3899 139.699 -3.6842 -40.8554 138.743 -4.04037 -42.2933 
140.627 -4.11618 -40.5389 136.535 -8.60044 -46.9486 135.922 -8.12836 -46.9735 
136.424 -8.54247 -46.9599 136.245 -7.71313 -46.8527 151.075 -13.7612 -34.875 
150.552 -12.7125 -35.0928 149.862 -11.4708 -35.2932 151.312 -16.2631 -36.0931 
151.519 -16.2631 -35.6314 151.665 -15.9631 -35.1489 151.535 -15.3765 -35.123 
[...]
POINT_DATA 11028
SCALARS scalars float
LOOKUP_TABLE default
-0.671776 -0.204544 -0.189365 -0.906112 -0.544455 -0.801146 -1.17846 6.93889e-18 6.93889e-18 
0 -0.0593438 2.77556e-17 -1.38778e-17 6.93889e-18 -0.653647 0 0 -0.19508 
-1.0403 -1.24144 -0.997699 -0.576781 -1.3114 -1.6311 -6.93889e-18 2.77556e-17 -0.310604 
-0.909875 -0.678604 0 -0.331859 -1.3969 -1.75538 -0.844256 -1.16436 -1.43629 
-1.65426 -1.97606 -2.77556e-17 -1.38778e-17 -0.161417 -0.824772 -1.24996 -1.55753 -0.92809 
0 0 -0.159978 -0.619724 -1.69845 -2.04575 -1.23284 -1.76667 -1.57228 
-2.17101 -2.50369 -2.57627 1.38778e-17 2.77556e-17 -0.196335 -0.621243 -0.969039 -1.33721 
-2.04332 -1.87261 -0.572802 -1.0338 -1.38778e-17 1.38778e-17 -0.313261 -1.22027 -1.86135 
-2.26539 -3.06967 -2.76771 -2.94209 -3.13788 -2.87837 -3.72991 0 -2.77556e-17 
0 -0.224449 0 -0.787194 -1.3929 -1.65325 -2.30278 -2.17374 -0.063838 
-0.71405 -0.947167 -1.38778e-17 -0.83164 -1.33912 -1.62123 -2.80252 -2.24867 -2.03117 
-3.00981 -3.43559 -3.53806 -4.26712 -3.58932 -3.97457 -3.55569 -2.86954 -4.25217 
-4.42376 0 -2.77556e-17 -0.323286 -1.34753 -1.84178 -2.88126 -3.13148 0 
0 -0.402244 0 -0.0498305 -0.725032 -1.06348 -1.09388 -1.63143 -2.74417 
-3.55263 -3.16478 -2.43957 -2.03854 -2.25617 -4.89786 -5.2305 -4.15496 -4.81552 
-4.03565 -3.27992 -4.70311 -5.27607 0 -0.292868 -0.825721 -1.77772 -2.71161 
-3.31647 -3.6434 -3.68091 6.93889e-18 -0.102783 -0.473638 -0.786456 -1.17456 -1.4757 
-2.96354 -3.87807 -3.50633 -2.64285 -1.67254 -1.89479 -2.32302 -5.84022 -6.08507 
-5.82514 -6.24381 -4.72061 -5.32723 -5.80281 -4.13727 -5.0115 -6.02848 0 
0 -0.240629 -0.683614 -1.1773 -2.09563 -2.90235 -3.86399 -3.44161 -4.46253 
1.38778e-17 1.38778e-17 -0.021558 -0.468464 -0.926989 -1.4342 -1.18863 -1.28663 -3.31882 
-4.42559 -4.2294 -3.13433 -2.91855 -1.45549 -2.11775 -6.35627 -6.81555 -6.67899 
-7.04085 -6.89179 -7.87612 -7.54607 -5.33528 -4.63211 -6.13083 -6.01941 -5.78694 
-6.67566 -7.29308 0 -0.135809 -1.38778e-17 -0.922236 -0.608943 -2.25306 -2.89396 
-3.30395 -4.40166 -4.56215 -3.81947 -4.296 -5.2958 0 0 -0.433905 
-0.593893 -0.130287 -1.08519 -1.69569 -1.09139 -3.54353 -5.21153 -4.1848 -4.76875 
-4.73325 -2.69989 -3.5631 -3.28838 -1.7621 -1.15251 -0.927841 -2.0736 -2.66983 
-6.70968 -7.24213 -8.20559 -7.85134 -9.00736 -8.6814 -6.39144 -5.72403 -6.73863 
-7.23184 -7.0135 -5.8029 -6.49635 -7.79482 -8.30404 1.38778e-17 0 -0.17194 
-2.19232 -2.18577 -2.79606 -3.46213 -5.01607 -5.27849 -4.35714 -5.80815 -6.54946 
1.38778e-17 -0.277694 -0.906087 -0.658173 -0.697022 0 -1.34376 -4.40034 -5.10936 
-5.65043 -3.62749 -2.94669 -3.66793 -1.3118 -1.71116 -0.578381 -0.810297 -1.62681 
-2.38846 -7.95337 -8.66732 -9.72149 -9.7608 -10.2292 -9.25756 -7.1245 -7.55611 
-8.67398 -7.38552 -8.47053 -6.25408 -8.95107 2.77556e-17 0 0 -2.77556e-17 
-1.43186 -2.01861 -1.5988 -2.14834 -2.83192 -3.55665 -3.90325 -5.03686 -5.58969 
-4.49133 -6.55815 -7.37474 -7.58121 -2.77556e-17 -0.0578562 -0.486798 -1.09575 -0.840049 
-4.31206 -4.93812 -5.73923 -6.8217 -2.45909 -3.24184 -2.77666 -3.74685 -1.09359 
0 -0.389006 -0.809684 -1.3437 -2.06808 -10.4161 -11.3886 -10.479 -10.8134 
-11.4889 -7.72528 -8.22263 -8.94419 -9.83651 -9.36789 -8.48826 -7.57666 -8.68445 
-9.714 -10.1242 -1.06918 -1.6293 -1.2216 -2.15754 -3.13098 -3.9547 -3.92302 
-5.24242 -5.82802 -5.90279 -4.52631 -8.34178 -6.86749 -8.44355 0 -0.111221 
6.93889e-18 -0.610627 -4.66391 -5.51261 -6.54745 -1.93722 -2.12619 -2.61921 -3.12787 
-4.32084 -3.82762 -2.77556e-17 -2.77556e-17 -0.493842 -0.786278 -1.06473 -1.48717 -10.8852 
-11.2704 -12.4122 -12.3922 -10.7315 -11.7335 -11.8361 -9.80615 -9.64915 -10.399 
-10.7055 -9.50006 -10.2738 -8.46199 -9.94987 -11.1418 -0.737857 -1.10761 -1.23209 
-1.55176 -0.93969 -2.437 -2.88099 -3.86913 -4.45238 -4.48987 -4.99609 -5.51163 
-6.30136 -5.96023 -7.01576 -8.5597 -9.39674 -7.80937 0 -1.38778e-17 -0.330249 
-5.26956 -6.01558 -7.34799 -1.40957 -1.5152 -2.41415 -2.82851 -3.30564 -4.90588 
-4.24012 -1.38778e-17 -0.239027 -0.770471 -1.0296 -12.1225 -11.8576 -12.8723 -13.0436 
-13.2986 -13.6155 -12.5023 -12.4381 -12.9929 -13.5123 -10.332 -10.3037 -11.1108 
-11.1048 -11.8039 -11.402 -9.30406 -9.76313 -10.484 -12.1534 -11.4347 -0.394381 
-0.587294 -0.905264 -0.611483 -1.77516 -1.42417 -1.00275 -2.13049 -2.09495 -2.64264 
-4.72066 -5.00561 -3.59309 -5.57568 -6.32569 -6.65185 -7.52581 -6.53143 -9.21206 
-8.34049 -9.87285 -2.77556e-17 0 -6.04721 -7.37566 -7.6663 -8.60341 -1.47187 
-1.93049 -2.35791 -2.74457 -3.49275 -3.73891 -4.77361 -5.65852 0 0 
0 -0.107696 -0.475391 -0.994269 -0.548943 -13.1758 -14.1323 -14.5552 -14.5972 
-15.0023 -15.0129 -14.1682 -13.2075 -14.8119 -15.1534 -11.1112 -10.845 -10.7227 
-11.5418 -11.758 -12.2577 -12.9537 -10.2052 -12.3026 -12.9838 -13.8578 -11.0974 
-12.6911 -0.332924 0 -0.345314 -0.561197 -1.75411 -1.5896 -1.11201 -0.580785 
-2.09677 -3.00099 -5.59657 -3.58505 -4.42968 -5.00684 -6.111 -6.31539 -6.17163 
-7.15918 -7.12543 -8.0702 -8.77936 -9.0176 -9.45588 -9.58912 -10.7304 -6.67095 
-9.66667 -7.86056 -10.0482 -1.73393 -2.62821 -3.23979 -4.15824 -3.79787 -5.0186 
-6.39158 -7.05209 1.38778e-17 2.77556e-17 -0.325004 -0.757186 -1.21679 -14.5206 -15.4877 
-16.4047 -16.1201 -16.9318 -15.9956 -15.9619 -15.8455 -15.7415 -15.0282 -16.6234 
-11.512 -12.1961 -12.6259 -13.8743 -14.0139 -15.3645 -11.5812 -14.7947 -13.1596 
-0.0471239 0 0 -0.0809385 -0.260343 -1.46472 -0.807642 -0.950019 -1.38778e-17 
-2.77556e-17 -0.109243 -1.66858 -2.49244 -2.96154 -3.68857 -4.17601 -5.10178 -6.35774 
-6.00943 -7.44398 -7.15525 -7.47991 -7.98304 -8.21336 -8.96792 -9.542 -9.52594 
-10.1247 -11.5866 -10.7535 -12.233 -12.3523 -9.78707 -11.8325 -11.7069 -7.81364 
-1.7259 -2.28717 -2.70105 -3.03818 -4.42649 -3.3496 -3.92528 -5.36676 -5.85807 
-7.82192 -6.8794 -2.77556e-17 0 -0.347778 -1.20966 -0.453235 -1.15129 -1.44083 
-16.0408 -15.3155 -16.9157 -17.6341 -18.0329 -17.633 -18.3985 -16.945 -17.0789 
-17.4813 -17.2188 -17.566 -13.1803 -13.666 -14.5829 -16.835 -16.2238 -12.7611 
-14.746 -15.8143 -14.352 0 6.93889e-18 -6.93889e-18 0 0 6.93889e-18 
-0.974264 -1.26258 -0.436354 -0.644637 -1.38778e-17 -1.38778e-17 -1.38778e-17 -1.11544 -1.7397 
-2.18055 -2.3019 -3.09201 -3.9033 -4.59575 -5.33431 -5.97182 -7.48917 -7.21759 
-8.24085 -8.86314 -8.56927 -9.08887 -9.20829 -8.99013 -9.80893 -10.4072 -11.6168 
-12.8196 -11.0626 -13.7166 -10.6157 -12.7997 -13.7447 -9.18386 -2.02934 -2.28127 
-2.72904 -3.14615 -4.31742 -3.66789 -5.15699 -6.15192 -6.95033 -8.41141 -9.28422 
2.77556e-17 0 0 2.77556e-17 -0.458042 -0.858042 -1.35358 -1.66513 -16.595 
-18.2256 -17.2017 -18.6521 -17.624 -19.6325 -19.1156 -18.3518 -18.7028 -19.7826 
-17.9476 -18.7317 -18.9148 -18.3807 -14.5696 -16.1899 -17.1498 -16.5104 -15.4594 
-15.9941 -16.8556 -14.4811 -0.855045 -0.254753 -2.77556e-17 -0.593083 -0.73857 -1.34417 
-1.61538 -2.1118 -2.57458 -3.15112 -3.52409 -4.13565 -5.7645 -6.96261 -7.64781 
-9.66197 -9.78726 -9.82093 -10.5022 -9.77469 -10.0919 -9.97691 -10.6658 -12.3276 
-14.0692 -14.156 -11.8596 -15.0298 -11.0167 -11.9235 -13.2833 -14.3721 -1.73667 
-2.11082 -2.32269 -3.14416 -2.60407 -4.33363 -3.741 -5.485 -5.60751 -6.80895 
-7.68014 -9.44209 -1.38778e-17 -2.77556e-17 -0.254148 -0.723906 -1.08808 -1.51918 -17.4736 
-18.1908 -19.903 -20.2825 -18.8232 -19.9517 -20.2925 -20.4422 -20.3192 -20.6698 
-19.9621 -19.4484 -18.9648 -20.5988 -19.1375 -20.1116 -19.8164 -18.8884 -17.7821 
-15.8154 -16.6545 -17.3586 -15.684 -16.5513 -17.1895 -17.6807 -15.0653 2.77556e-17 
0 0 -1.38778e-17 0 -0.198983 -0.343825 -1.03953 -0.722469 -1.22401 
-1.44389 -2.00236 -2.30225 -2.81032 -3.20842 -3.02106 -5.49221 -4.44526 -6.59787 
-8.48527 -8.0042 -8.50721 -9.46787 -10.4206 -10.4668 -11.0793 -10.185 -10.8311 
-10.7061 -11.5561 -13.4839 -13.4922 -14.4241 -15.3131 -15.5918 -15.6238 -12.403 
-11.4217 -12.6112 -12.8925 -14.6236 -14.0843 -15.1628 -1.70322 -1.9491 -3.38197 
-2.32175 -3.03537 -2.78017 -4.277 -4.78032 -3.94137 -5.41275 -7.68319 -6.9593 
-9.15668 -10.6358 0 1.38778e-17 1.38778e-17 -0.122006 -0.502545 -1.25587 -0.782307 
-1.03256 -17.9542 -19.1397 -20.0383 -21.0068 -20.6305 -20.5483 -21.3186 -20.2722 
-21.4601 -20.7521 -22.0848 -21.8465 -21.4136 -21.5816 -21.1741 -20.47 -19.4991 
-18.5911 -19.2493 -19.8372 -17.8512 -16.8171 -18.2759 -15.7372 -16.571 -17.3745 
-17.9868 0 0 -0.332727 2.77556e-17 -0.875853 -1.20302 -1.68829 -2.03647 
-2.4495 -2.25823 -3.42568 -2.21612 -3.76143 -5.49122 -8.11137 -9.28035 -8.97634 
-11.2158 -11.5022 -11.7629 -11.4402 -11.9366 -13.2209 -13.2867 -15.2679 -15.602 
-16.5724 -16.3991 -16.9528 -16.5432 -11.4617 -13.2826 -13.9426 -15.6558 -15.334 
-15.9808 -1.58985 -1.84242 -2.45318 -2.89374 -3.26501 -4.59125 -5.63983 -3.69564 
-3.64018 -4.23247 -8.10984 -7.33182 -6.91518 -8.17818 -8.70746 -9.78545 -10.5626 
0 1.38778e-17 0 -0.336547 -1.26867 -0.484239 -0.960684 -17.192 -17.9143 
-18.4716 -19.2827 -19.9967 -20.5762 -22.547 -21.4119 -21.7273 -21.8588 -21.861 
-22.006 -21.7634 -22.3417 -22.556 -23.177 -23.4072 -22.209 -22.166 -21.7157 
-20.6349 -18.9538 -20.0757 -18.8091 -19.0752 -16.6884 -17.2322 -17.7414 -18.4823 
0 -2.77556e-17 -0.203944 -0.74194 -0.968571 -1.30424 -1.67884 -1.41004 -1.78354 
-2.79936 -3.56471 -4.33616 -1.75424 -2.22516 -5.14501 -6.52906 -8.90166 -9.69128 
-10.199 -10.4792 -11.2255 -12.631 -12.7892 -11.8919 -13.1265 -14.7204 -15.9522 
-16.7774 -17.6683 -17.6403 -17.6733 -12.3944 -11.2799 -14.692 -14.076 -15.6094 
-16.1785 -1.43748 -1.6269 -3.09975 -2.15897 -3.15283 -1.90978 -5.26955 -6.29824 
-3.44908 -3.82146 -4.91178 -4.79339 -7.97787 -8.73456 -7.05876 -9.1599 -10.2131 
-11.22 0 -0.156434 -1.13287 0 1.38778e-17 -0.260791 -0.802698 -19.1769 
-20.283 -21.5155 -23.8134 -23.9728 -23.4664 -23.534 -24.1282 -23.4548 -22.8733 
-24.0946 -23.1644 -24.7072 -23.4505 -24.4768 -22.6925 -23.9504 -21.9328 -22.8387 
-21.8409 -21.1093 -19.8508 -20.8983 -19.6626 -16.867 -17.3074 -18.3219 -18.2104 
-19.1517 0 -1.38778e-17 -2.77556e-17 -0.126974 -0.456009 -0.686922 -0.904816 -1.09944 
-1.32212 -2.72309 -4.93573 -3.33109 -1.51878 -2.18239 -1.68197 -7.06496 -8.08827 
-8.9809 -9.89225 -10.7851 -11.9002 -13.2748 -13.6203 -13.5745 -15.3362 -14.3487 
-16.6517 -17.4154 -18.0705 -19.2177 -18.5708 -12.6226 -13.85 -13.8702 -15.0772 
-16.7147 -16.1274 -16.5448 -1.39387 -2.74158 -3.28964 -1.68426 -1.63117 -1.77704 
-2.41843 -5.85522 -3.70116 -4.03706 -5.7538 -6.1505 -5.12051 -4.49761 -6.31701 
-8.71972 -9.7249 -6.92813 -7.95698 -11.2249 -10.0015 -12.2193 -6.93889e-18 -1.16889 
1.38778e-17 -1.38778e-17 -0.267413 -0.596254 -19.4517 -20.1793 -22.2232 -24.2564 -24.5314 
-23.5119 -22.8711 -22.7487 -25.1666 -25.5213 -24.2618 -25.3929 -26.0578 -25.0888 
-25.9348 -25.2603 -24.8382 -25.0017 -25.7187 -22.4243 -23.7191 -22.5448 -22.4479 
-20.3444 -21.3737 -20.3259 -17.6146 -18.1981 -19.0874 -19.7111 0 0 
-0.0401697 -0.420263 -0.672366 -0.557298 -0.938238 -2.64559 -4.03747 -4.95044 -5.80058 
-5.88208 -3.79017 -1.25592 -1.73715 -2.07384 -6.78136 -7.72742 -7.97178 -9.78486 
-10.9264 -11.2983 -11.6224 -13.8395 -14.5757 -14.4511 -15.1374 -14.8761 -16.2083 
-16.9573 -17.9388 -18.8371 -19.4328 -13.3143 -15.0807 -15.4193 -14.3922 -17.0734 
-15.9549 -16.3761 -16.914 -3.00012 -3.31844 -1.39779 -1.11727 -1.40171 -1.164 
-1.40241 -1.75893 -2.60301 -3.37864 -4.10083 -5.79195 -5.91118 -7.78387 -7.04286 
-9.46475 -11.6755 -10.7611 -12.182 -12.569 -0.9964 2.77556e-17 -1.38778e-17 2.77556e-17 
-0.555945 -20.7382 -21.4135 -22.2955 -24.5396 -23.6612 -24.1309 -22.9384 -22.1707 
-22.1812 -21.8544 -21.2961 -21.6144 -24.7736 -25.7059 -25.0933 -25.5966 -26.3802 
-27.2875 -26.8605 -26.4322 -26.5441 -25.9883 -25.149 -25.8116 -25.8332 -26.1375 
-26.537 -23.5277 -22.0743 -23.0967 -20.9622 -17.5349 -18.6601 -19.8001 -20.074 
0 0 6.93889e-18 0 -0.114694 0 2.77556e-17 -0.510044 -2.52307 
-5.91958 -4.02016 -3.13952 -5.82028 -0.886813 -1.41395 -1.7283 -2.1698 -7.52704 
-9.53605 -12.8878 -11.0966 -12.3869 -13.4302 -12.8063 -14.7104 -16.2156 -16.1386 
-15.3081 -15.7115 -15.8871 -16.7743 -17.8069 -18.5393 -19.3275 -19.9804 -19.4144 
-13.3938 -15.155 -15.6734 -14.205 -13.6362 -16.1259 -16.5511 -16.9749 -16.8086 
-17.2618 -17.6726 -3.38476 -0.786716 -0.791085 -1.07727 -0.668287 -1.19856 -1.23148 
-1.34986 -2.10216 -2.6982 -4.00262 -4.60141 -5.88433 -8.14226 -8.86903 -6.726 
-7.7679 -10.3496 -10.8188 -11.8718 -11.9193 -11.1112 -12.3592 0 -0.37336 
-21.3991 -21.4893 -24.166 -23.5379 -23.1266 -22.2474 -21.449 -21.6252 -20.4354 
-20.8041 -20.9871 -24.7946 -26.5892 -25.6973 -25.1149 -26.9072 -26.6376 -26.6309 
-26.337 -25.2985 -25.3736 -24.8417 -24.1075 -25.4565 -25.514 -26.0621 -22.1062 
-22.8237 -24.2993 -21.1102 -18.9426 -19.4729 -17.9364 -20.8114 -20.8998 -2.77556e-17 
0 0 2.77556e-17 -0.303378 -2.77556e-17 -4.55152 -6.00674 -2.66548 -3.27566 
-7.40323 -1.0921 -0.542229 -1.41181 -1.83222 -2.23176 -8.78606 -10.1084 -12.2104 
-13.1414 -13.9378 -13.8926 -14.4276 -11.2434 -10.6013 -15.6007 -17.5975 -17.6336 
-16.3617 -17.1333 -17.7027 -16.9408 -17.7418 -18.9122 -19.8647 -20.3072 -20.5767 
-12.9801 -15.3342 -15.8817 -16.2146 -13.7372 -13.0537 -14.5924 -15.1702 -16.6647 
-17.7121 -17.474 -17.3455 -2.80606 -3.37288 -3.79727 -0.349651 -0.384275 -0.548305 
-0.357921 -0.233626 -0.466116 -0.89308 -0.88012 -0.914814 -1.10516 -1.49394 -1.80105 
-2.15519 -4.74502 -6.40908 -5.37313 -8.91188 -7.12257 -8.1148 -9.87856 -11.861 
-11.0337 0 1.38778e-17 -20.4387 -21.0113 -24.1245 -23.7978 -23.0302 -22.3721 
-21.6115 -21.1414 -20.6817 -20.1717 -19.9052 -19.9076 -26.1924 -25.7555 -24.9374 
-25.4418 -26.0632 -26.2327 -26.1741 -25.8033 -24.8883 -24.9091 -24.9906 -25.0166 
-24.9124 -25.4946 -22.8566 -22.054 -23.5192 -23.8978 -24.7033 -22.1314 -19.1231 
-18.6002 -20.0491 -20.8428 -21.7978 -21.2122 0 -0.143972 -4.80937 -5.77678 
-7.31674 -6.37368 -2.67482 -4.22518 -3.50674 -2.33317 -2.74112 -8.5215 -8.09342 
-0.417209 -0.963217 0 0 -1.57933 -2.03099 -9.44641 -9.4405 -10.5091 
-10.1783 -12.3762 -12.7829 -14.2832 -15.578 -15.2195 -10.872 -11.0057 -16.4015 
-18.6889 -17.7864 -18.4977 -17.7942 -18.4621 -16.6301 -16.9781 -19.3051 -19.4024 
-19.643 -12.4531 -15.3443 -15.9757 -16.527 -12.5566 -13.4677 -13.9249 -12.3037 
-14.7528 -14.4777 -18.519 -17.2997 -18.1223 -2.68909 -3.19944 -3.57941 -4.42104 
0 -2.77556e-17 0 -0.203451 0 -1.38778e-17 2.77556e-17 -1.38778e-17 -2.77556e-17 
0 -0.111193 -0.482606 -0.785844 -0.947046 -1.33342 -1.94718 -5.03958 -6.07357 
-9.09366 -7.52685 -6.0375 -7.08454 -8.09942 -10.1172 -11.4151 -19.2615 -24.0398 
-23.3271 -22.5663 -22.9934 -21.7191 -20.955 -20.7687 -19.3605 -19.5205 -19.7923 
-24.6164 -25.4983 -25.2718 -25.5756 -25.9834 -24.8499 -24.9254 -24.3313 -24.3119 
-24.4428 -24.3822 -24.1674 -24.1493 -22.881 -23.4413 -24.0141 -24.3167 -24.0243 
-22.5011 -23.0283 -19.5392 -18.9359 -20.2218 -20.885 -21.3795 -22.2564 0 
0 -5.01632 -5.87309 -7.53484 -8.37555 -6.8144 -2.37044 -3.29492 -3.76557 
-4.63946 -1.81593 -2.38235 -8.80332 -0.222424 2.77556e-17 -1.02277 -1.5029 -9.59055 
-10.0658 -12.0942 -13.0112 -14.0041 -14.9959 -16.0727 -11.092 -11.6514 -18.7462 
-17.2048 -17.9567 -16.2157 -16.028 -15.9199 -18.8108 -18.7835 -18.2771 -15.6346 
-14.8693 -16.3128 -11.3452 -12.2054 -12.9404 -13.86 -11.0626 -14.2753 -16.6413 
-17.6805 -18.3743 -2.82808 -3.20286 -4.02943 -3.1992 -4.0868 1.38778e-17 -1.38778e-17 
2.77556e-17 -0.244092 -0.464618 -0.754829 -0.612976 -1.15187 -1.43813 -2.02434 -4.74959 
-9.9297 -9.20662 -10.2248 -7.83694 -7.17384 -6.11909 -18.7638 -18.4693 -24.0308 
-23.3283 -22.225 -22.809 -21.4301 -20.5671 -20.8657 -20.1168 -18.5099 -19.0799 
-18.9588 -24.7364 -25.5019 -25.5384 -25.0361 -25.0496 -24.2128 -24.0751 -24.2046 
-23.6039 -23.7787 -23.5858 -23.5273 -23.2769 -23.3111 -22.9179 -23.1901 -23.6619 
-23.5355 -23.2986 -24.0429 -23.1028 -22.8431 -23.5073 -19.5188 -18.8912 -19.8525 
-20.567 -21.7443 -22.3998 -21.2365 -23.1102 -5.74156 -5.69175 -7.85909 -8.59631 
-9.25864 -6.64944 -7.69216 -3.06593 -3.59765 -4.13492 -5.09407 -1.0661 -1.60566 
-1.91276 -2.54032 2.77556e-17 2.77556e-17 -2.77556e-17 -1.38778e-17 -0.430726 -0.264629 -10.2227 
-12.0864 -12.378 -13.6187 -14.7491 -15.663 -10.6208 -11.2074 -18.1012 -16.3857 
-17.4117 -15.3821 -15.2965 -14.9249 -15.1906 -14.3455 -17.696 -17.3468 -17.6841 
-15.3595 -16.1215 -14.9741 -11.3552 -12.1256 -11.2216 -12.7522 -13.447 -13.8662 
-14.5204 -16.8319 -17.5194 -18.2093 -18.9296 -2.69789 -4.41889 -3.84824 -3.30295 
0 -0.248108 -0.0284989 -0.599029 -0.43973 -0.942296 -0.305047 -1.36543 -1.08226 
-1.94384 -9.35371 -9.88364 -10.6419 -8.56335 -8.84832 -6.70437 -6.45648 -8.03098 
-5.55031 -4.83983 -18.1314 -17.7925 -24.1648 -23.5024 -22.718 -23.8197 -22.2601 
-21.6616 -20.2391 -20.4688 -20.8876 -19.8102 -17.9386 -18.4191 -18.3661 -18.3308 
-18.8371 -19.551 -24.564 -25.0853 -25.0338 -24.3347 -24.6413 -23.5226 -23.6828 
-23.5774 -23.5358 -22.6364 -22.9369 -22.821 -22.5758 -22.6646 -22.2525 -21.8855 
-23.0468 -22.7789 -22.7577 -22.6904 -22.6175 -22.654 -22.4514 -22.1842 -22.7642 
-20.8806 -19.8894 -18.9116 -22.0893 -21.5645 -22.6867 -21.5775 -5.67402 -8.42807 
-9.46712 -6.32197 -7.09623 -8.27124 -7.60374 -4.67049 -3.23424 -5.07967 -0.250387 
-0.567319 -1.33521 -2.32539 -1.70644 -2.77556e-17 0 1.38778e-17 0 -1.38778e-17 
-10.0271 -11.3462 -12.3311 -12.033 -13.2767 -14.01 -14.4565 -14.954 -10.651 
-16.9029 -15.8416 -16.3109 -16.855 -14.4428 -14.3152 -13.7477 -14.0746 -14.7718 
-16.8738 -17.1693 -15.8185 -15.0445 -15.8999 -10.8108 -12.158 -12.5899 -13.2525 
-14.0274 -14.1336 -14.6126 -16.7062 -17.4263 -18.1989 -17.8304 -2.83284 -4.08901 
-4.72661 -3.57181 0 -3.46945e-18 -1.38778e-17 -0.6706 -0.480585 -0.248666 -0.108334 
0 -0.904831 -0.770868 -1.08267 -1.60305 -2.05976 -8.86234 -9.27958 -8.3891 
-5.38318 -7.00758 -7.4043 -16.773 -17.2271 -24.0387 -23.233 -22.7234 -24.5398 
-22.3344 -21.3508 -21.9195 -20.1787 -20.0017 -20.5597 -20.9149 -17.4264 -17.9035 
-17.9622 -18.2767 -18.7051 -19.0801 -19.4897 -24.8324 -24.5394 -24.4151 -24.7337 
-24.2107 -23.8168 -23.8018 -23.0586 -22.742 -23.3289 -22.7587 -23.0326 -23.4184 
-22.1276 -22.2328 -22.1583 -22.2134 -22.4109 -22.1818 -21.6779 -21.2996 -21.0637 
-21.0107 -21.5728 -22.7817 -22.4063 -22.3333 -21.8693 -22.0455 -21.7356 -21.57 
-22.4588 -20.5448 -21.1253 -21.5174 -19.681 -18.9699 -22.0079 -21.9268 -8.79461 
-9.7331 -6.48213 -7.13369 -7.62468 -7.7013 -8.24509 -3.16923 -5.059 -6.15225 
-2.53043 1.38778e-17 -2.77556e-17 0 4.16334e-17 0 -0.116875 -0.732686 -1.27122 
-1.69845 -10.7643 -13.2241 -11.4333 -12.211 -12.5957 -13.8728 -13.4355 -15.2322 
-15.738 -16.09 -13.716 -13.3244 -13.182 -13.4988 -13.4847 -14.1794 -14.8621 
-15.6009 -14.8765 -15.5191 -16.1205 -10.6621 -12.0697 -12.7248 -13.2349 -14.4298 
-13.7294 -17.2917 -16.5622 -17.1062 -18.6389 -17.8195 -2.65846 -3.43774 -4.64476 
-3.98347 -0.390132 -0.234189 -0.675707 0 -1.38778e-17 1.38778e-17 -1.26806 -0.784393 
-1.67064 -2.50323 -8.19168 -9.31833 -6.12376 -7.37923 -6.51894 -15.6885 -15.684 
-16.4416 -16.9329 -23.5418 -22.765 -21.3664 -22.1864 -19.7503 -20.4858 -20.9126 
-17.1198 -17.5876 -17.5437 -17.8111 -18.1968 -18.5937 -19.0362 -19.0007 -19.1963 
-24.2081 -24.4243 -24.3268 -23.7412 -24.2005 -24.6742 -24.5348 -23.1696 -23.1227 
-22.5941 -22.28 -22.3224 -22.3056 -22.9484 -22.6829 -22.7524 -23.0284 -22.7836 
-21.8485 -21.907 -21.9438 -21.6288 -21.5214 -21.6662 -21.7898 -22.1243 -21.8339 
-20.8471 -20.6972 -20.5062 -21.0142 -22.395 -22.0627 -22.111 -20.8924 -20.9793 
-20.9439 -21.7726 -21.0467 -21.3492 -20.7301 -20.1535 -20.4469 -21.2156 -20.5693 
-19.4283 -8.84437 -9.95418 -9.37789 -5.54385 -6.41091 -7.15194 -7.57523 -8.57163 
-2.38931 -3.92824 -4.50429 -1.65126 0 0 0 -0.619795 -1.20127 
-12.6472 -9.97164 -10.8588 -10.9571 -11.0627 -11.5815 -11.9796 -13.0725 -15.5609 
-12.8197 -12.6869 -12.4273 -12.8039 -12.4402 -12.7153 -13.4347 -14.0442 -14.5999 
-15.1143 -15.7687 -15.144 -16.4708 -11.0074 -11.9512 -12.5202 -13.1839 -14.5481 
-13.6043 -14.3107 -14.752 -17.064 -18.2547 -19.1923 -18.0139 -3.38434 -4.60863 
-5.49055 -3.24865 0 0 -5.55112e-17 -2.77556e-17 -0.460629 0 -1.26975 
-0.790409 -0.687997 -0.590209 -0.99549 -1.12974 -1.82725 -2.319 -2.85919 -7.70283 