# vtk DataFile Version 4.2
3D Slicer output. SPACE=LPS
ASCII
DATASET POLYDATA
POINTS 5235 float
-35.0654 15.5315 16.8223 -35.0654 15.6527 17.158 -35.1468 15.6527 16.8223 
-34.8053 15.1527 16.8223 -35.2716 15.6527 16.3223 -35.0654 15.2918 16.3223 
-35.0654 15.7207 17.3223 -34.6921 15.1527 17.3223 -35.3376 16.1527 17.3223 
-35.4798 16.1527 16.8223 -35.5654 16.1527 16.4945 -34.5654 14.9698 17.3223 
-34.5654 14.7911 16.8223 -34.9848 15.1527 16.3223 -34.5654 14.6527 16.5835 
-35.3779 15.6527 15.8223 -35.0654 15.1527 15.9786 -35.6047 16.1527 16.3223 
-35.5654 15.9728 15.8223 -34.8322 15.6527 17.8223 -35.0654 16.0057 17.8223 
-34.5654 15.1527 17.7113 -35.5727 16.6527 17.3223 -35.5654 16.2961 16.8223 
-35.1606 16.1527 17.8223 -35.4333 16.6527 17.8223 -35.7659 16.6527 16.8223 
-35.9302 16.6527 16.3223 -34.3669 14.6527 17.3223 -34.4917 14.6527 16.8223 
-34.6597 14.6527 16.3223 -34.5654 14.498 16.3223 -34.2636 14.1527 16.8223 
-34.3995 14.1527 16.3223 -35.0654 15.1131 15.8223 -35.4291 15.6527 15.3223 
-35.1191 15.1527 15.3223 -35.5654 15.8897 15.3223 -34.7835 14.6527 15.8223 
-35.6803 16.1527 15.8223 -35.7256 16.1527 15.3223 -34.5654 15.2258 17.8223 
-34.5654 15.6527 18.2488 -34.8456 16.1527 18.3223 -35.0654 16.1527 17.9941 
-34.5654 15.7274 18.3223 -34.1894 14.6527 17.8223 -35.7917 17.1527 17.3223 
-35.5654 16.9895 17.8223 -35.1558 16.6527 18.3223 -35.0654 16.5149 18.3223 
-35.442 17.1527 18.3223 -35.5654 17.1527 18.0135 -35.9823 17.1527 16.8223 
-36.0654 17.1527 16.5654 -35.9793 16.6527 15.8223 -36.0654 16.9833 16.3223 
-36.0654 16.8294 15.8223 -34.089 14.1527 17.3223 -34.0654 14.4747 17.8223 
-34.5654 14.269 15.8223 -34.2115 13.6527 16.3223 -34.0654 13.6527 16.7989 
-34.5058 14.1527 15.8223 -34.2893 13.6527 15.8223 -35.0654 15.0684 15.3223 
-35.449 15.6527 14.8223 -35.1409 15.1527 14.8223 -35.5654 15.8548 14.8223 
-35.7409 16.1527 14.8223 -34.8346 14.6527 15.3223 -34.5654 14.1527 15.5455 
-36.025 16.6527 15.3223 -34.2174 15.1527 18.3223 -34.0654 14.6527 18.0454 
-34.1651 15.6527 18.8223 -34.0654 15.4989 18.8223 -34.5654 16.1527 18.7427 
-34.8391 16.6527 18.8223 -36.0296 17.6527 17.3223 -36.0654 17.6527 17.1937 
-36.0654 17.3655 16.8223 -35.6244 17.1527 17.8223 -35.8214 17.6527 17.8223 
-35.0654 16.6527 18.4482 -35.5654 17.5596 18.3223 -35.0996 17.1527 18.8223 
-35.0654 17.0831 18.8223 -35.2709 17.6527 18.8223 -36.1267 17.1527 16.3223 
-36.3122 17.6527 16.3223 -36.0654 16.7408 15.3223 -36.2276 17.1527 15.8223 
-36.2607 17.1527 15.3223 -33.8647 13.6527 17.3223 -33.8739 14.1527 17.8223 
-34.1593 13.1527 15.8223 -34.0769 13.1527 16.3223 -33.8863 13.1527 16.8223 
-34.379 13.6527 15.3223 -34.2504 13.1527 15.3223 -35.0654 15.0222 14.8223 
-35.5041 15.6527 14.3223 -35.2073 15.1527 14.3223 -35.5654 15.7603 14.3223 
-35.7931 16.1527 14.3223 -36.0654 16.7389 14.8223 -34.8814 14.6527 14.8223 
-34.6612 14.1527 14.8223 -34.6056 14.1527 15.3223 -34.0654 14.9075 18.3223 
-34.0654 15.1527 18.5458 -33.8984 14.6527 18.3223 -34.0654 15.6527 18.9333 
-33.8472 15.1527 18.8223 -33.7088 15.6527 19.3223 -33.5654 15.4347 19.3223 
-34.5654 16.2275 18.8223 -34.1518 16.1527 19.3223 -34.0654 16.0597 19.3223 
-34.5654 16.6527 19.2535 -34.768 17.1527 19.3223 -34.5654 16.754 19.3223 
-36.0654 17.8221 17.3223 -36.1569 17.6527 16.8223 -36.2772 18.1527 16.8223 
-35.9604 18.1527 17.8223 -36.0654 18.1527 17.4907 -35.6962 18.1527 18.3223 
-35.5654 17.6527 18.3652 -35.0654 17.6527 19.1254 -35.3962 18.1527 18.8223 
-35.5654 18.1527 18.54 -36.4551 17.6527 15.8223 -36.4488 18.1527 16.3223 
-36.2787 17.1527 14.8223 -36.4779 17.6527 15.3223 -33.682 13.1527 17.3223 
-33.6435 13.6527 17.8223 -33.5654 13.4795 17.8223 -33.5654 13.1527 17.584 
-33.5654 14.1527 18.3249 -33.5654 13.6527 17.9435 -34.0654 13.0921 16.3223 
-34.0654 12.6527 16.0893 -34.1093 12.6527 15.8223 -34.1635 12.6527 15.3223 
-33.8089 12.6527 16.8223 -34.4508 13.6527 14.8223 -34.3201 13.1527 14.8223 
-34.5654 13.9339 14.8223 -34.2243 12.6527 14.8223 -35.0654 14.8953 14.3223 
-35.5654 15.6527 13.9706 -35.2632 15.1527 13.8223 -35.8704 16.1527 13.8223 
-36.0654 16.6661 14.3223 -36.0654 16.6527 14.2891 -36.0654 16.512 13.8223 
-36.331 17.1527 14.3223 -34.9367 14.6527 14.3223 -34.6745 14.1527 14.3223 
-33.5654 14.6527 18.7441 -33.5654 14.7462 18.8223 -33.5654 15.1527 19.136 
-33.5654 15.6527 19.4969 -34.0654 16.1527 19.4204 -33.3958 15.1527 19.3223 
-33.3023 15.6527 19.8223 -34.0654 16.6527 19.8128 -34.0654 16.6672 19.8223 
-34.9264 17.6527 19.3223 -34.5654 17.1527 19.5689 -34.3299 17.1527 19.8223 
-36.1138 18.1527 17.3223 -36.1702 18.6527 17.3223 -36.3426 18.6527 16.8223 
-35.9779 18.6527 17.8223 -36.0654 18.6527 17.5972 -35.7504 18.6527 18.3223 
-35.0654 18.1527 19.2872 -35.4791 18.6527 18.8223 -35.5654 18.6527 18.6715 
-35.0654 18.4132 19.3223 -36.5654 18.1123 15.8223 -36.5654 17.9208 15.3223 
-36.4976 18.6527 16.3223 -36.5654 18.6527 16.0844 -36.4733 17.6527 14.8223 
-36.5654 17.9082 14.8223 -33.5734 12.6527 17.3223 -33.4228 13.1527 17.8223 
-33.2581 13.6527 18.3223 -33.2819 12.6527 17.8223 -33.1663 14.1527 18.8223 
-34.0149 12.6527 16.3223 -34.0654 12.1527 16.0739 -34.0042 12.1527 16.3223 
-34.1061 12.1527 15.8223 -34.1276 12.1527 15.3223 -34.1808 12.1527 14.8223 
-33.5824 12.1527 17.3223 -33.8142 12.1527 16.8223 -34.4701 13.6527 14.3223 
-34.3286 13.1527 14.3223 -34.5654 13.9039 14.3223 -34.254 12.6527 14.3223 
-34.2288 12.1527 14.3223 -35.0654 14.84 13.8223 -35.5654 15.6285 13.8223 
-35.2248 15.1527 13.3223 -35.0654 14.9165 13.3223 -35.5654 15.6527 13.4432 
-35.8294 16.1527 13.3223 -36.1416 16.6527 13.8223 -36.1128 16.6527 13.3223 
-36.3485 17.1527 13.8223 -36.4972 17.6527 14.3223 -34.9493 14.6527 13.8223 
-34.6741 14.1527 13.8223 -33.5029 14.6527 18.8223 -33.0654 14.6527 19.3415 
-33.5654 16.0237 19.8223 -33.6761 16.1527 19.8223 -33.0654 15.1527 19.7141 
-33.0654 15.2912 19.8223 -33.0654 15.6527 20.1401 -33.2752 16.1527 20.3223 
-33.5654 16.1527 19.9571 -33.0654 15.872 20.3223 -33.7031 16.6527 20.3223 
-34.0654 17.1527 20.1023 -34.5654 17.6527 19.7242 -34.5654 18.1527 19.8071 
-34.4711 17.6527 19.8223 -36.2672 19.1527 17.3223 -36.4238 19.1527 16.8223 
-36.0654 19.1527 17.808 -35.8158 19.1527 18.3223 -35.5654 19.1527 18.7037 
-34.5654 18.3451 19.8223 -35.4835 19.1527 18.8223 -35.0847 18.6527 19.3223 
-35.1036 19.1527 19.3223 -34.5888 18.6527 19.8223 -36.6285 18.6527 15.8223 
-36.6274 18.1527 15.3223 -36.6412 18.1527 14.8223 -36.5654 19.1795 16.3223 
-36.6811 19.1527 15.8223 -36.5654 17.869 14.3223 -36.6438 18.1527 14.3223 
-33.0654 12.6527 18.1033 -33.0654 13.1527 18.2562 -33.0654 13.2973 18.3223 
-33.0654 13.6527 18.5491 -33.0654 13.9916 18.8223 -33.2634 12.1527 17.8223 
-33.0654 12.1527 18.0401 -33.0654 14.1527 18.9555 -34.0654 11.6527 15.8398 
-33.9474 11.6527 16.3223 -34.0686 11.6527 15.8223 -34.1141 11.6527 15.3223 
-34.1703 11.6527 14.8223 -34.2143 11.6527 14.3223 -33.5654 11.7856 17.3223 
-33.7679 11.6527 16.8223 -34.4759 13.6527 13.8223 -34.3172 13.1527 13.8223 
-34.5654 13.9032 13.8223 -34.2107 12.6527 13.8223 -34.1971 12.1527 13.8223 
-34.2134 11.6527 13.8223 -34.897 14.6527 13.3223 -35.1273 15.1527 12.8223 
-35.0654 15.0429 12.8223 -35.5654 15.6893 13.3223 -35.4537 15.6527 12.8223 
-34.8406 14.6527 12.8223 -35.772 16.1527 12.8223 -35.5654 15.8204 12.8223 
-36.0654 16.6527 13.0542 -36.3288 17.1527 13.3223 -36.5006 17.6527 13.8223 
-36.4832 17.6527 13.3223 -36.5654 17.858 13.8223 -34.6403 14.1527 13.3223 
-34.5654 13.9722 13.3223 -32.726 14.1527 19.3223 -32.6571 14.6527 19.8223 
-32.5654 14.5051 19.8223 -33.5654 16.47 20.3223 -32.9811 15.1527 19.8223 
-32.5654 15.1527 20.3816 -32.9352 15.6527 20.3223 -33.0654 16.1527 20.5741 
-33.0654 16.4532 20.8223 -32.8765 16.1527 20.8223 -33.5654 16.6527 20.4846 
-33.8955 17.1527 20.3223 -34.0654 17.6527 20.2417 -34.1482 18.1527 20.3223 
-34.0654 17.8873 20.3223 -36.3388 19.6527 17.3223 -36.162 19.6527 17.8223 
-36.0654 19.1737 17.8223 -36.5113 19.6527 16.8223 -36.5654 19.6527 16.6564 
-35.8867 19.6527 18.3223 -36.0654 19.6527 18.0292 -35.5654 19.6527 18.7163 
-34.2206 18.6527 20.3223 -35.4804 19.6527 18.8223 -35.1131 19.6527 19.3223 
-34.654 19.1527 19.8223 -34.7067 19.6527 19.8223 -34.5654 19.1527 19.9293 
-36.7165 18.6527 15.3223 -36.7086 18.6527 14.8223 -36.6447 19.6527 16.3223 
-36.717 19.6527 15.8223 -36.7484 19.1527 15.3223 -36.6496 18.1527 13.8223 
-36.7286 18.6527 14.3223 -32.8519 12.6527 18.3223 -32.5654 13.1527 18.7278 
-32.5654 13.3457 18.8223 -32.7886 13.6527 18.8223 -32.5654 13.9371 19.3223 
-33.2645 11.6527 17.8223 -33.0654 11.6527 18.0518 -32.7333 12.1527 18.3223 
-32.7647 11.6527 18.3223 -34.0654 11.6402 15.8223 -33.9122 11.1527 16.3223 
-34.041 11.1527 15.8223 -34.1469 11.1527 15.3223 -34.0654 11.1527 15.7235 
-34.1949 11.1527 14.8223 -34.2234 11.1527 14.3223 -33.5654 11.6527 17.302 
-33.7496 11.1527 16.8223 -33.5654 11.1527 17.2385 -34.4491 13.6527 13.3223 
-34.2651 13.1527 13.3223 -34.1236 12.6527 13.3223 -34.1191 12.1527 13.3223 
-34.1487 11.6527 13.3223 -34.2262 11.1527 13.8223 -34.1736 11.1527 13.3223 
-35.0654 15.1527 12.4955 -35.3603 15.6527 12.3223 -34.7086 14.6527 12.3223 
-34.5654 14.4373 12.3223 -34.5654 14.1527 12.8159 -34.5672 14.1527 12.8223 
-35.6925 16.1527 12.3223 -35.5654 15.9605 12.3223 -36.0237 16.6527 12.8223 
-35.9511 16.6527 12.3223 -36.2509 17.1527 12.8223 -36.0654 16.7487 12.8223 
-36.4345 17.6527 12.8223 -36.5654 18.0385 13.3223 -34.3571 13.6527 12.8223 
-32.5654 14.1527 19.5218 -32.5654 14.6527 19.9493 -32.3099 14.6527 20.3223 
-32.3837 14.1527 19.8223 -32.1681 15.1527 20.8223 -32.0654 15.0085 20.8223 
-32.5654 15.6527 20.8202 -32.5654 15.6555 20.8223 -32.5654 16.1527 21.1227 
-32.5654 16.5546 21.3223 -33.0654 16.6527 20.9371 -33.2082 16.6527 20.8223 
-33.5654 17.1527 20.7135 -33.4532 17.1527 20.8223 -33.9968 17.6527 20.3223 
-33.5654 17.4808 20.8223 -34.0654 18.1527 20.4173 -33.7167 18.1527 20.8223 
-33.6136 17.6527 20.8223 -36.3055 20.1527 17.3223 -36.4598 20.1527 16.8223 
-36.136 20.1527 17.8223 -36.0654 20.1527 17.9931 -36.5654 20.1527 16.469 
[...]
POINT_DATA 5235
SCALARS scalars float
LOOKUP_TABLE default
-7.7616 -7.81425 -7.64324 -8.13579 -7.38954 -7.73573 -7.83275 -8.39091 -7.41739 
-7.16171 -6.99643 -8.57406 -8.4957 -7.87011 -8.50427 -7.14032 -7.69636 -6.91069 
-6.83692 -8.10008 -7.72238 -8.59809 -6.95378 -7.02675 -7.56667 -7.04761 -6.69564 
-6.44452 -8.88925 -8.63043 -8.36395 -8.51682 -9.11049 -8.84979 -7.65825 -6.90044 
-7.38358 -6.67578 -8.10864 -6.6669 -6.42777 -8.56008 -8.16927 -7.64373 -7.59615 
-8.09249 -9.1613 -6.4646 -6.70543 -7.12112 -7.26523 -6.60614 -6.56745 -6.24321 
-6.11536 -6.20396 -6.14719 -6.04408 -9.38182 -9.34299 -8.48438 -9.3218 -9.57442 
-8.59732 -9.07583 -7.46608 -6.66673 -7.15071 -6.47463 -6.19348 -7.86926 -8.45829 
-5.96515 -8.70018 -9.23128 -8.16875 -8.32863 -7.64934 -7.13288 -5.96376 -5.94271 
-6.05306 -6.54056 -6.03816 -7.1292 -6.19661 -6.62571 -6.69599 -6.12414 -5.99612 
-5.55414 -5.88548 -5.7543 -5.5163 -9.86377 -9.66512 -9.53593 -9.78234 -10.0561 
-8.82889 -9.28934 -7.2775 -6.43147 -6.91356 -6.32907 -5.95862 -5.65257 -7.63276 
-8.11055 -8.34828 -8.96083 -8.69905 -9.23311 -8.16407 -8.68767 -8.13459 -8.35709 
-7.57044 -7.62215 -7.71721 -7.12042 -6.61599 -7.01503 -5.79611 -5.7986 -5.35951 
-5.54173 -5.49443 -5.60382 -6.1074 -6.12249 -5.6251 -5.61893 -5.31483 -5.11792 
-5.28041 -5.07697 -10.3362 -10.1501 -10.318 -10.4863 -9.76719 -10.2265 -9.83708 
-10.1094 -9.97862 -9.74131 -10.5028 -8.58802 -9.04974 -8.3201 -9.5035 -7.16262 
-6.26612 -6.68258 -5.72664 -5.48506 -5.48163 -5.39472 -5.04688 -7.39752 -7.88361 
-9.21442 -9.11051 -8.66261 -8.11714 -7.61424 -8.64451 -8.0829 -7.07821 -7.06296 
-6.11741 -6.60191 -6.58192 -5.46954 -4.97641 -4.89386 -5.04681 -5.0157 -5.10603 
-5.6207 -5.12719 -5.12467 -5.35999 -4.91557 -4.84433 -4.68274 -4.5701 -4.84026 
-4.61848 -10.7898 -10.6336 -10.2941 -11.0957 -9.72605 -10.2266 -10.5347 -10.6604 
-10.4125 -10.1835 -9.90995 -11.2141 -10.9305 -8.35926 -8.80128 -8.12195 -9.20557 
-9.60411 -6.989 -6.22182 -6.46785 -6.69803 -6.03406 -5.50981 -5.26621 -5.0456 
-4.81749 -4.6067 -7.17289 -7.657 -9.2075 -9.15371 -7.70772 -7.57741 -8.6023 
-8.44966 -8.04894 -7.52759 -7.56389 -7.80959 -7.03106 -6.5564 -6.09415 -5.59086 
-6.08631 -4.48656 -4.40788 -4.55185 -4.60938 -4.62645 -5.39813 -4.62777 -5.12114 
-4.62203 -5.09176 -4.44667 -4.64399 -4.40762 -4.22698 -4.01514 -4.41844 -4.17276 
-11.2848 -10.8162 -10.6629 -10.2739 -9.89249 -11.5245 -11.6781 -9.71084 -10.8635 
-11.1052 -10.855 -10.6137 -10.307 -10.0037 -11.5323 -11.3713 -8.09127 -8.5021 
-7.88027 -8.90554 -9.30526 -9.70775 -6.9485 -6.24182 -6.33893 -5.949 -5.77542 
-6.67443 -5.30033 -5.61546 -4.93155 -4.59383 -4.37594 -4.14948 -4.19678 -7.382 
-7.53242 -9.67135 -9.10013 -9.25088 -7.21152 -8.59024 -8.53045 -8.03017 -7.50417 
-7.18367 -7.48309 -7.01619 -6.53665 -6.04831 -5.54816 -5.8095 -3.99875 -4.0647 
-4.53316 -3.92594 -3.89842 -4.11475 -4.08847 -4.1277 -5.05285 -4.12821 -4.12274 
-4.59511 -4.09829 -4.58726 -4.21277 -3.97409 -3.8216 -3.58475 -3.7799 -3.94133 
-3.74027 -11.3148 -10.7756 -10.5685 -10.2483 -9.8948 -11.9493 -12.1067 -11.8148 
-12.3006 -10.8666 -11.5464 -11.2819 -10.8938 -11.2057 -10.4972 -10.1017 -11.6369 
-11.8068 -12.0373 -7.79507 -8.20322 -8.60914 -9.01223 -9.41928 -9.70594 -9.29922 
-6.06892 -5.54384 -6.38872 -6.56622 -7.08711 -7.09083 -5.09046 -5.26747 -4.83477 
-4.62914 -4.37775 -4.74643 -3.92936 -3.80931 -7.50014 -9.64764 -9.08549 -9.04429 
-9.609 -8.49208 -8.63888 -7.98482 -7.98187 -7.46117 -7.04742 -6.97668 -6.98617 
-6.50224 -6.49271 -6.04102 -6.16916 -5.5397 -5.50521 -5.99947 -3.50446 -3.43324 
-3.56969 -3.58925 -3.37421 -3.61906 -3.63124 -5.03679 -4.55531 -4.53745 -3.62349 
-3.60098 -4.08581 -3.54178 -3.34909 -3.15126 -3.34599 -2.91264 -3.5099 -3.70904 
-3.27476 -3.311 -11.2906 -10.7651 -11.2637 -10.2211 -10.6931 -10.1858 -12.3776 
-12.5582 -12.705 -12.2865 -11.8027 -12.7574 -11.1533 -11.1843 -11.4652 -11.8565 
-10.6792 -10.2812 -9.47359 -9.87721 -12.2293 -12.3293 -7.90831 -8.38406 -8.88229 
-9.19689 -9.04676 -9.06274 -8.89444 -8.64832 -5.92672 -5.28107 -5.46459 -6.18343 
-5.69136 -6.51073 -6.79962 -4.9229 -4.41863 -4.38102 -4.17096 -3.71901 -3.48212 
-3.268 -3.65701 -7.20895 -7.52305 -7.6875 -9.44314 -9.01905 -10.117 -10.1062 
-9.562 -7.96048 -8.48618 -8.46942 -9.00331 -7.44911 -7.68834 -6.93202 -6.94975 
-6.45262 -6.46656 -5.96118 -4.99124 -5.00988 -5.49182 -5.78786 -3.00698 -2.9334 
-3.00128 -3.12036 -3.21681 -3.13318 -3.12528 -4.51229 -4.05844 -4.03703 -4.01776 
-3.12213 -3.10489 -3.5853 -3.56617 -3.11241 -2.79964 -2.7086 -2.4736 -2.67358 
-2.23684 -3.0842 -2.85375 -3.04267 -3.18887 -2.61646 -2.88348 -11.764 -11.7375 
-11.2048 -11.0541 -10.6605 -10.2802 -12.351 -12.3567 -12.2605 -12.7385 -12.381 
-12.3852 -11.0705 -11.3123 -10.8947 -12.2179 -11.7884 -11.6729 -10.4915 -10.0924 
-9.27175 -8.85712 -9.68511 -11.8029 -11.823 -11.9366 -8.24476 -8.72587 -9.13776 
-8.72978 -8.75056 -8.43093 -8.26365 -8.19432 -4.8583 -5.04506 -4.59777 -5.40497 
-6.09999 -6.03015 -5.53897 -6.98675 -6.83348 -6.23894 -5.8132 -4.78019 -3.96885 
-4.18355 -4.30857 -3.91429 -3.7563 -3.51684 -3.06301 -2.81977 -2.60854 -2.9308 
-7.33807 -7.62002 -8.03233 -9.55499 -9.53011 -9.22536 -10.0688 -10.1869 -7.95374 
-8.27784 -8.46578 -8.99643 -7.44333 -7.42979 -7.94515 -6.92436 -6.4244 -6.42736 
-6.44301 -7.1608 -5.9399 -4.96957 -4.47275 -4.49171 -5.4646 -5.43739 -5.45907 
-2.5132 -2.44265 -2.56088 -2.84814 -2.36099 -2.57434 -2.6188 -2.63392 -2.63042 
-3.99232 -3.53614 -3.49403 -3.52972 -2.62497 -3.08541 -2.61436 -3.0775 -3.16405 
-2.44295 -2.45082 -2.03498 -1.8067 -2.00233 -1.57415 -2.6557 -2.4222 -2.17889 
-2.38039 -2.61205 -1.94189 -2.21542 -11.6989 -12.1982 -11.1373 -11.2276 -10.626 
-10.5996 -12.2079 -12.7238 -12.4039 -11.2851 -11.1472 -10.7566 -11.2789 -11.3038 
-10.3441 -9.93321 -9.10067 -8.68684 -8.25088 -9.5208 -11.369 -11.852 -11.3439 
-11.8744 -8.44625 -8.4843 -8.35046 -8.07068 -8.00185 -7.81055 -7.71174 -7.80249 
-4.71987 -4.44306 -4.32113 -4.0205 -5.22283 -6.92331 -6.64361 -6.21412 -5.5322 
-5.64269 -3.53565 -3.52542 -3.31552 -2.86555 -2.40826 -2.30125 -2.15727 -1.95175 
-7.75468 -7.06376 -10.0634 -9.52276 -10.0495 -8.98577 -10.5886 -8.45998 -8.75362 
-7.42637 -7.823 -7.93485 -6.92173 -6.41656 -6.17525 -7.42016 -6.91362 -5.92637 
-5.4295 -4.45899 -4.95854 -3.95978 -3.97585 -4.93287 -4.93649 -2.0237 -1.96153 
-2.07052 -2.22974 -1.89027 -1.86839 -2.0343 -2.08132 -2.12097 -2.13414 -2.13575 
-2.1386 -3.48135 -2.99815 -2.13466 -2.66603 -2.59214 -2.10746 -2.13151 -3.04116 
-2.54656 -1.77253 -1.61592 -1.38713 -1.33583 -1.16122 -1.97476 -1.72596 -1.78071 
-1.49279 -1.35891 -12.1796 -11.6635 -12.6924 -12.6816 -11.1334 -11.6493 -11.1221 
-11.8811 -11.9019 -12.4155 -10.6862 -10.7267 -10.6318 -10.2869 -11.2408 -10.7623 
-10.8048 -9.90323 -9.05808 -8.62193 -7.64928 -8.09831 -9.38933 -10.8265 -11.3565 
-10.8362 -11.3677 -8.17456 -7.90725 -7.64993 -8.01154 -7.37051 -7.36974 -7.20102 
-7.48482 -7.56768 -7.12284 -4.48484 -5.04778 -4.21604 -4.03697 -3.92875 -3.8617 
-5.12175 -6.37311 -6.5927 -6.90243 -5.95045 -5.43828 -3.17585 -3.27514 -3.34461 
-3.10244 -2.86837 -2.6669 -2.98025 -2.21027 -1.75287 -1.7106 -1.49744 -1.29801 
-7.46941 -7.58872 -9.51851 -9.72072 -10.5836 -10.0475 -10.5794 -8.9805 -10.7368 
-8.26916 -8.44783 -7.93276 -8.97334 -6.40882 -5.91258 -5.90865 -6.24482 -5.9232 
-7.92571 -7.41349 -6.90782 -6.9764 -6.40739 -5.42167 -4.92163 -4.45537 -3.93982 
-3.44365 -3.46097 -4.42231 -1.54292 -1.79951 -1.48119 -1.77613 -1.80193 -1.34406 
-1.63188 -1.63982 -1.64809 -2.9648 -2.46871 -2.50245 -1.64353 -2.10054 -2.18371 
-1.61174 -1.64035 -1.52807 -1.20143 -0.973179 -0.752527 -0.917536 -1.08666 -1.27664 
-1.14622 -1.19417 -1.2617 -0.80686 -12.1564 -12.3487 -12.4226 -12.649 -11.6424 
-11.1185 -11.6441 -11.3824 -11.3888 -11.401 -11.92 -10.2708 -10.1924 -10.2228 
-10.2605 -10.1339 -10.2154 -9.80878 -10.2959 -10.6218 -10.3278 -10.2994 -8.96141 
-8.54027 -7.05102 -7.50182 -7.95818 -8.83874 -9.26515 -9.68702 -10.87 -10.8612 
-10.3541 -11.1426 -10.8805 -7.91287 -7.48486 -7.49857 -7.66061 -7.067 -7.15112 
-6.73507 -6.58737 -6.7866 -6.67984 -6.45916 -6.91522 -6.76715 -4.84401 -4.15845 
-3.84851 -3.65253 -3.86322 -3.75647 -6.27596 -6.11525 -6.54806 -6.8004 -7.22996 
-5.68605 -5.25921 -5.07358 -3.21507 -2.59715 -2.4419 -2.43549 -2.55857 -2.07278 
-1.6005 -1.13233 -1.03882 -0.831894 -0.691673 -9.24636 -9.50601 -10.046 -10.1414 
-11.1826 -11.1092 -10.5145 -8.44345 -8.96381 -5.412 -5.41063 -5.90579 -5.40561 
-6.40257 -5.90035 -7.91698 -7.40825 -6.89764 -4.97702 -4.91243 -4.41552 -3.92353 
-3.4393 -2.94876 -2.94136 -1.06227 -0.997053 -1.60325 -1.12928 -1.42663 -1.32079 
-0.8545 -1.15569 -1.14228 -1.15471 -1.15564 -1.14977 -2.45128 -1.95431 -1.96979 
-2.00564 -1.1447 -2.04729 -1.55213 -1.11359 -0.763503 -0.554849 -0.490759 -0.341493 
-0.313076 -0.362751 -0.651352 -0.395967 -0.539424 -0.837485 -0.848525 -0.593458 -1.03961 
-0.596808 -0.359236 -0.576792 -12.1493 -12.357 -12.2541 -12.4386 -12.2328 -11.6374 
-11.8739 -10.9016 -11.3606 -10.9053 -11.9328 -11.4192 -9.68216 -9.9533 -9.74426 
-9.75893 -9.79432 -9.63347 -10.0856 -10.3426 -9.81972 -9.82566 -9.99839 -8.40727 
-6.87761 -6.4652 -7.39404 -7.85265 -8.74426 -8.29884 -9.16682 -9.54892 -9.58572 
-10.3703 -10.0412 -10.8857 -10.3769 -10.3911 -7.20249 -7.15832 -6.82104 -7.486 
-6.92252 -6.61728 -6.10183 -5.97445 -6.27103 -6.59044 -6.1104 -5.89334 -6.46273 
-6.19993 -4.65359 -3.95853 -4.44613 -3.67632 -3.48238 -3.42296 -2.99331 -3.31501 
-5.94424 -6.50312 -5.43364 -5.60954 -6.76864 -6.98074 -5.05963 -4.88632 -2.30084 
-2.52003 -2.18126 -1.99524 -1.74371 -2.13353 -1.89809 -1.53976 -1.08018 -0.615615 
-0.363424 -0.293396 -0.191025 -9.49884 -10.0337 -11.6322 -11.5473 -11.0708 -10.5749 
-10.8629 -8.63596 -8.43706 -8.92774 -8.94694 -9.48063 -9.49512 -4.906 -5.40005 
-6.39468 -5.89294 -7.54896 -8.4218 -7.89904 -7.85798 -7.40491 -7.39008 -6.88384 
-4.41332 -3.91635 -3.91347 -3.42505 -3.41731 -2.44286 -2.92659 -2.42719 -0.573965 
-0.497483 -0.795779 -0.62116 -0.40655 -0.933434 -0.323592 -0.66484 -0.651025 -0.647652 
-0.646559 -0.6526 -0.650296 -0.640888 -1.4746 -1.45745 -1.94564 -1.51458 -0.62498 
-1.01977 -1.05856 -0.61659 -0.457158 -0.316285 -0.0728025 -2.77556e-17 0 -0.199245 
0 0 2.08167e-17 2.77556e-17 -0.394262 -1.38778e-17 -0.162247 0 2.77556e-17 
-0.12191 -12.0618 -12.1448 -11.9384 -11.9369 -11.9537 -12.1421 -11.9602 -10.7734 
-10.9159 -11.4334 -9.18318 -9.72111 -9.22238 -9.60194 -9.6223 -9.29607 -9.28183 
-9.13551 -9.10214 -9.85272 -6.81154 -6.5076 -5.84638 -6.33537 -7.28531 -7.75069 
-9.11621 -8.68666 -8.20496 -8.37639 -9.28673 -9.19097 -9.87586 -10.0136 -10.397 
-6.74271 -7.0742 -7.37349 -6.30944 -5.66837 -5.61381 -5.78954 -5.98528 -5.63293 
-5.50485 -5.28872 -6.34142 -5.88525 -5.60645 -4.57151 -3.79479 -4.3633 -4.23515 
-3.88862 -3.24313 -3.24262 -2.97163 -2.81753 -2.77326 -3.0882 -6.30453 -5.86914 
-5.38143 -4.99909 -5.19186 -5.41739 -6.73829 -4.31206 -2.22378 -2.02062 -2.41877 
-2.70058 -1.29686 -1.66021 -1.69182 -1.4792 -0.841145 -0.390405 1.38778e-17 0 
1.38778e-17 0 1.38778e-17 2.77556e-17 -9.61219 -9.86325 -10.022 -10.5612 -11.6748 
-11.3235 -10.9347 -11.0009 -10.3535 -9.11309 -8.87421 -9.36601 -9.95312 -4.90016 
-4.40626 -5.39225 -5.12302 -6.37963 -5.94252 -5.87945 -5.38783 -8.38835 -8.03304 
-7.86928 -7.35768 -6.85254 -6.36757 -6.56721 -3.90643 -3.41368 -2.92042 -2.91504 
-1.92837 -2.42059 -0.356414 -0.148796 -0.102596 -0.637275 -0.101274 6.93889e-18 1.38778e-17 
-1.38778e-17 -0.228228 -0.130024 -0.12421 -0.261921 -0.133997 -0.129437 -0.982762 -0.956703 
-1.4484 -1.42872 -0.0947333 -0.526125 -0.506056 -0.568959 -0.554326 -0.0412056 -6.93889e-18 
-2.77556e-17 0 1.38778e-17 6.93889e-18 -1.38778e-17 6.93889e-18 1.38778e-17 -1.38778e-17 0 
0 0 -11.8724 -11.7652 -11.8903 -11.4493 -11.8882 -11.4557 -11.7754 
-11.4872 -10.4067 -10.4175 -10.8202 -10.9295 -11.1806 -10.9344 -8.68534 -8.7249 
-9.26086 -8.76395 -9.32739 -9.33546 -9.35419 -8.83053 -8.7981 -8.62943 -8.59075 
-9.0881 -9.36516 -6.68813 -6.31646 -5.29462 -5.21593 -5.70761 -5.38761 -6.19579 
-7.17055 -7.63432 -8.17045 -9.02262 -9.0508 -8.64913 -8.50076 -9.37666 -9.38155 
-9.8961 -9.95705 -9.91458 -6.5887 -6.81213 -6.1194 -6.00704 -6.49895 -5.47384 
-5.22524 -5.00953 -5.36679 -4.91569 -4.63654 -5.08663 -5.73335 -5.00965 -3.60359 
-3.63002 -3.18306 -2.56153 -2.518 -2.1477 -6.21663 -6.69016 -5.69403 -4.74446 
-5.11102 -4.50871 -4.58652 -4.94742 -5.28931 -5.62914 -4.0675 -1.79261 -2.34743 
-1.61597 -1.51592 -1.19844 -0.765381 -1.26871 -1.04897 -0.748711 -0.322943 0 
-11.1983 -11.3831 -11.143 -10.8427 -10.6269 -9.983 -10.1379 -9.96907 -9.0723 
-8.67093 -9.15811 -9.64617 -9.85942 -4.8939 -4.40039 -4.39631 -4.87773 -5.37793 
-5.84798 -8.19388 -8.07201 -7.71715 -7.24145 -6.76979 -6.34779 -6.27644 -3.90078 
-3.40703 -2.90783 -2.41578 -1.92139 -1.42306 -0.0344518 -6.93889e-18 0 0 
0 0 -0.121335 0 1.38778e-17 0 0 0 0 
-1.38778e-17 0 -0.130424 0 -0.13375 0 1.38778e-17 0 6.93889e-18 
-0.48158 -0.562632 -0.950181 -0.929115 -0.0684693 1.38778e-17 0 -0.0327565 -0.0218215 
2.81893e-17 8.67362e-18 0 0 -11.6571 -11.6148 -11.4639 -10.9591 -11.3635 
-11.061 -9.92446 -10.4286 -10.9442 -10.4403 -8.14097 -8.18672 -8.22631 -8.26501 
-8.29546 -8.84976 -8.85828 -8.33059 -8.34554 -8.14969 -8.55263 -8.0777 -8.88172 
-7.04651 -6.55303 -6.2851 -6.03366 -5.06669 -4.82709 -5.05925 -5.52925 -7.48657 
-8.07296 -8.52379 -8.00956 -8.1089 -8.88988 -9.39653 -8.89788 -9.40021 -9.4162 
-9.42239 -6.07228 -6.34919 -5.69389 -5.84511 -4.94526 -4.78564 -4.56658 -4.42029 
-4.77491 -4.48458 -4.15395 -4.0248 -5.24453 -4.78472 -3.0019 -3.38415 -1.99497 
-2.29358 -1.87888 -2.29088 -1.74039 -1.45076 -6.06117 -6.48928 -4.47448 -4.83861 
-4.87329 -5.13956 -5.37423 -5.95105 -3.82505 -1.29136 -0.913542 -0.985324 -1.27004 
-0.596108 -0.148021 -0.478254 -0.320696 -2.77556e-17 0 -10.7545 -10.9003 -11.0797 
-11.166 -10.9109 -9.98733 -10.4253 -9.44475 -9.02766 -8.47232 -8.10337 -4.39283 
-3.89716 -3.89312 -4.37808 -4.85028 -5.34907 -5.78635 -7.5246 -7.05585 -6.91124 
-6.58862 -6.12123 -3.40128 -3.39769 -2.90191 -2.40874 -1.91716 -0.920371 -1.42011 
0 0 1.38778e-17 0 0 -0.44794 1.38778e-17 -1.38778e-17 -0.427204 
-0.624817 0 -3.46945e-18 0 4.33681e-19 0 0 -11.4783 -11.3321 
-10.4626 -10.4527 -10.9716 -11.0127 -9.43184 -9.93183 -9.43268 -10.1809 -9.93368 
-7.64608 -7.59503 -7.68912 -7.72662 -7.75707 -7.81341 -7.7986 -8.35885 -7.82183 
-7.95102 -7.85557 -8.05274 -7.55457 -8.38181 -6.42343 -6.62193 -6.81737 -7.27982 
-5.77678 -4.50067 -4.68686 -4.29849 -4.21115 -5.01514 -5.32971 -5.44974 -7.92221 
-7.4845 -8.02374 -7.52523 -7.50384 -8.00065 -8.39378 -8.90567 -8.39896 -8.4051 
-8.91742 -8.92355 -5.87421 -6.21257 -6.43278 -5.55752 -5.49703 -4.03479 -3.78917 
-4.33154 -3.89235 -4.24663 -3.83884 -3.54634 -3.43916 -3.8574 -4.79022 -4.94344 
-4.50632 -2.7084 -3.17246 -2.70931 -2.09919 -1.72186 -1.18649 -1.01468 -4.29545 
-4.67747 -4.6199 -4.39124 -4.89832 -5.08164 -5.79024 -5.66949 -3.62996 -3.43824 
-3.14318 -0.819046 -0.382335 -0.590477 -0.514413 -0.715939 -0.290231 -1.38778e-17 -2.77556e-17 
0 0 0 -0.0359324 1.38778e-17 0 -10.68 -10.4557 -10.5985 
-10.926 -10.7245 -10.7263 -9.93351 -9.97518 -10.2359 -8.95542 -9.25468 -8.95816 
-9.742 -8.76749 -8.284 -8.13544 -8.09319 -7.99541 -3.3934 -3.87846 -4.3516 
-4.7988 -5.29338 -5.65099 -7.80687 -7.33708 -6.934 -6.40707 -5.47771 -5.9426 
-2.9001 -2.89537 -2.40429 -1.91114 -2.24829 -0.918798 -1.41272 -0.910696 1.38778e-17 
1.38778e-17 -1.38778e-17 -0.413081 -2.77556e-17 0 -0.411506 -0.407617 -11.3361 -11.3323 
-11.0153 -11.2308 -10.4647 -9.95115 -10.9857 -10.6784 -8.93248 -9.43857 -8.94015 
-9.94115 -7.49008 -7.36251 -7.22399 -7.58693 -7.27591 -7.23945 -7.54127 -7.8606 
-7.82897 -7.41904 -7.33225 -7.30908 -7.76517 -7.06255 -7.09179 -7.87789 -6.31256 
-6.76375 -6.53551 -7.1403 -5.66071 -3.96074 -3.95708 -4.16658 -4.25226 -4.11853 
-4.73838 -3.74228 -3.62849 -5.2577 -5.48467 -4.9695 -7.1225 -7.02049 -7.03615 
-7.01768 -7.8807 -7.94544 -7.91028 -8.228 -8.41656 -8.41838 -8.42908 -5.2887 
-5.50996 -5.70739 -6.04348 -5.12747 -5.04978 -3.61641 -3.21696 -3.15895 -3.27832 
-3.46495 -4.26053 -3.70793 -3.37871 -3.3832 -2.90397 -4.69639 -4.58715 -4.28772 
-2.51686 -2.3218 -2.03242 -1.85516 -1.61646 -0.976035 -0.601402 -4.05355 -3.57091 
-4.24929 -3.96927 -4.35362 -5.48272 -5.39013 -4.87758 -4.73873 -3.0178 -2.46211 
-0.126873 0 6.93889e-18 2.77556e-17 -0.0818222 2.77556e-17 6.93889e-18 -0.469511 -0.237536 
-0.0339787 0 -6.93889e-18 -3.46945e-18 -10.3798 -10.0385 -10.13 -10.2879 -10.3523 
-10.8002 -10.5071 -10.5545 -9.56868 -9.86182 -10.0639 -8.88188 -8.58952 -9.07753 
-8.10734 -7.93539 -7.63057 -3.37909 -3.85259 -4.30312 -4.69731 -5.17623 -7.15985 
-6.8708 -5.76115 -6.22645 -4.83372 -5.29652 -5.01299 -2.39682 -2.38072 -2.88044 
-1.9094 -1.89952 -1.4098 -1.4032 -0.907115 -0.406327 1.38778e-17 0 0 
-1.38778e-17 -1.38778e-17 -10.7016 -11.0231 -11.0028 -10.4785 -10.2061 -9.96192 -9.71721 
-10.3728 -8.43305 -9.44787 -9.05571 -8.95075 -8.45138 -8.43975 -9.45041 -7.20484 
-7.16555 -7.11235 -7.00659 -6.8093 -6.82071 -7.80177 -7.3387 -7.02289 -6.86404 
-6.83919 -7.36314 -6.58919 -6.5561 -5.99636 -6.35189 -6.98414 -6.483 -3.49773 
-3.34191 -3.80564 -3.99153 -4.55329 -4.72423 -3.2456 -4.88236 -5.08661 -5.27982 
-5.81073 -7.00208 -6.54038 -7.45379 -7.38579 -7.91564 -7.41732 -7.92348 -4.95398 
-5.33659 -4.96699 -5.19902 -5.5636 -2.94773 -2.65865 -2.57888 -3.06737 -2.8675 
-3.99396 -2.72853 -3.17059 -3.79922 -2.3803 -2.48896 -4.20415 -4.46281 -4.08394 
-3.7189 -1.92873 -1.52118 -0.921941 -0.296628 -0.829287 -3.79421 -3.47179 -3.8673 
-4.19849 -5.18287 -5.14173 -4.70048 -4.52549 -5.01704 -5.135 -2.64366 -2.87222 
-2.34884 0 0 0 0 3.46945e-18 1.38778e-17 -1.38778e-17 -1.38778e-17 
0 0 -10.0276 -9.68793 -9.78525 -9.9537 -10.0798 -10.3991 -10.1913 
-9.90716 -8.9172 -9.4112 -9.67577 -8.68829 -8.4271 -7.9435 -7.66707 -7.46536 
-6.99181 -3.3537 -3.80702 -4.21491 -4.54643 -6.69238 -6.52167 -5.11918 -5.58503 
-6.05264 -6.21433 -4.19238 -4.6547 -4.37216 -1.88211 -2.35589 -2.85491 -1.40457 
-0.907458 -0.404702 -1.38778e-17 -10.7479 -10.4942 -10.3481 -9.98821 -9.974 -9.46545 
-9.45687 -10.0253 -10.0839 -10.4517 -7.93299 -8.96401 -8.46727 -8.14771 -7.93632 
-6.71616 -6.82277 -6.69807 -6.64138 -6.77239 -6.6879 -6.34377 -6.90721 -6.34948 
-6.40196 -6.88731 -6.40657 -6.08069 -6.1115 -6.31515 -6.51473 -6.52927 -6.29121 
-6.01854 -2.95993 -2.82058 -3.11411 -3.53871 -3.41223 -3.73245 -4.45962 -4.2321 
-4.75186 -5.20609 -4.60461 -5.657 -5.32857 -6.06252 -7.02471 -6.90841 -6.88249 
-7.52552 -7.41986 -6.93554 -7.07013 -7.4304 -7.68427 -4.70504 -4.82069 -4.45179 
-4.453 -4.71408 -2.47725 -2.36296 -2.04483 -2.45268 -2.36877 -2.94478 -3.34493 
-3.42094 -2.1686 -2.28209 -2.35687 -3.58211 -3.82301 -1.85835 -1.77629 -1.34929 
-1.30685 -0.23266 1.38778e-17 -1.38778e-17 -1.21496 -0.701385 -0.527178 -3.2974 -3.17692 
-3.68877 -3.45938 -3.24932 -4.03279 -3.84724 -3.61037 -5.0315 -4.40382 -4.86186 
-4.19967 -3.98137 -4.79627 -4.4689 -2.20183 -2.67981 -2.17447 -9.66519 -9.48195 
-9.36175 -9.46066 -9.625 -9.86338 -9.76269 -10.1343 -8.77069 -9.26584 -9.43687 
-8.4224 -8.27883 -7.79222 -7.31127 -6.83462 -6.3619 -3.31054 -3.72935 -3.60408 
-4.07583 -3.90823 -4.48578 -4.9542 -5.42322 -5.89145 -3.55503 -4.02126 -3.72838 
-1.38552 -1.85807 -2.31708 -2.81414 -0.886209 -0.905114 1.38778e-17 -0.164713 -0.401611 
-10.5171 -10.5116 -10.0043 -9.48752 -9.47551 -8.97448 -8.97225 -9.14581 -9.6678 
-9.69765 -9.67986 -10.0868 -10.41 -8.4739 -8.84647 -8.14032 -7.96171 -7.9498 
-6.59012 -6.73685 -6.26947 -6.2232 -6.16166 -6.18031 -6.30737 -6.31833 -6.16341 
-5.87437 -5.88959 -5.90427 -6.1759 -6.41718 -6.42612 -5.57516 -5.59941 -5.62757 
-5.68945 -6.02084 -6.04827 -6.05233 -6.03946 -5.53811 -5.55414 -2.26672 -2.57496 
-2.75404 -3.21687 -3.50163 -4.06298 -5.12153 -3.98701 -4.53371 -5.0572 -5.52052 
-5.36827 -6.92838 -6.92556 -6.44663 -6.93815 -6.46904 -6.51901 -6.67426 -7.43509 
-7.4424 -4.09216 -4.37265 -4.38679 -3.98303 -1.87075 -1.98483 -1.85911 -1.98448 
-2.21475 -1.81253 -2.48496 -2.89674 -2.08701 -3.26599 -3.6214 -1.74419 -1.60408 