# vtk DataFile Version 4.2
3D Slicer output. SPACE=LPS
ASCII
DATASET POLYDATA
POINTS 10001 float
-88.6957 -22.5532 27.5885 -88.2697 -22.484 27.0885 -88.7697 -22.4313 27.5885 
-88.3625 -23.0532 27.5885 -88.2697 -23.0532 27.4723 -88.7697 -22.5532 27.6605 
-88.4759 -22.0532 27.0885 -87.9536 -23.0532 27.0885 -87.8956 -22.5532 26.5885 
-88.2697 -22.0532 26.77 -88.7697 -22.0532 27.4082 -88.9852 -22.0532 27.5885 
-89.2697 -22.5139 28.0885 -89.2697 -22.0532 27.8345 -88.2697 -23.1877 27.5885 
-88.7697 -23.0918 28.0885 -88.6569 -21.5532 27.0885 -88.7697 -21.5532 27.2158 
-88.2697 -21.7597 26.5885 -87.7697 -23.2821 27.0885 -87.7697 -23.0532 26.8746 
-87.7697 -22.7313 26.5885 -87.9899 -23.5532 27.5885 -87.7697 -22.5532 26.4031 
-88.1699 -22.0532 26.5885 -89.2697 -21.5532 27.6418 -89.4023 -23.0532 28.5885 
-89.2697 -23.0532 28.4945 -89.7697 -22.6835 28.5885 -89.7697 -22.5532 28.5156 
-89.5149 -22.0532 28.0885 -88.4159 -23.5532 28.0885 -88.2697 -23.5532 27.9184 
-88.7697 -23.5532 28.4385 -88.3356 -21.5532 26.5885 -88.4594 -21.0532 26.5885 
-88.7697 -21.1126 27.0885 -89.2697 -21.2395 27.5885 -88.2697 -21.5532 26.4967 
-87.8682 -22.0532 26.0885 -88.0012 -21.5532 26.0885 -87.5483 -23.5532 27.0885 
-87.5449 -23.0532 26.5885 -87.7697 -23.5532 27.347 -87.7697 -23.8085 27.5885 
-87.9913 -24.0532 28.0885 -88.2697 -23.7243 28.0885 -87.7697 -22.2346 26.0885 
-87.5688 -22.5532 26.0885 -89.7697 -21.5532 28.1288 -89.7697 -21.4189 28.0885 
-89.2697 -23.1784 28.5885 -89.7697 -23.0532 28.8272 -89.2697 -23.5532 28.8313 
-89.8741 -22.5532 28.5885 -90.2697 -22.5532 28.8622 -89.7697 -22.0532 28.3061 
-88.7697 -23.7446 28.5885 -88.9462 -23.5532 28.5885 -88.4507 -20.5532 26.5885 
-88.7697 -20.5532 27.0009 -88.2697 -21.0532 26.3429 -88.8454 -20.5532 27.0885 
-89.2893 -21.0532 27.5885 -89.7697 -21.0532 28.0097 -87.7697 -22.0532 25.9415 
-87.7697 -21.5532 25.6934 -88.0895 -21.0532 26.0885 -87.2697 -23.8997 27.0885 
-87.2697 -23.5532 26.7165 -87.558 -24.0532 27.5885 -87.2697 -24.0532 27.2474 
-87.2697 -23.4289 26.5885 -87.2697 -23.0532 26.1609 -87.7697 -24.0532 27.8295 
-87.7697 -24.3395 28.0885 -88.2697 -24.3159 28.5885 -88.2697 -24.0532 28.384 
-87.5403 -22.0532 25.5885 -87.2697 -22.5532 25.6031 -90.2697 -21.5532 28.5133 
-89.8597 -21.0532 28.0885 -90.2697 -21.0532 28.4312 -89.7697 -23.4315 29.0885 
-90.1608 -23.0532 29.0885 -90.2697 -22.9408 29.0885 -89.2697 -23.9681 29.0885 
-89.6516 -23.5532 29.0885 -88.7697 -24.0532 28.7976 -90.2697 -22.0532 28.6413 
-90.6504 -22.5532 29.0885 -90.7697 -22.4326 29.0885 -90.7697 -22.0532 28.9197 
-90.2697 -21.8708 28.5885 -88.4908 -24.0532 28.5885 -88.3951 -20.0532 26.5885 
-88.8117 -20.0532 27.0885 -88.2697 -20.5532 26.3229 -88.2697 -20.0532 26.3789 
-88.1211 -20.5532 26.0885 -89.2835 -20.5532 27.5885 -89.2697 -20.3497 27.5885 
-89.8368 -20.5532 28.0885 -87.7697 -21.0597 25.5885 -87.7145 -21.5532 25.5885 
-87.839 -20.5532 25.5885 -87.157 -24.0532 27.0885 -86.8318 -24.0532 26.5885 
-87.1825 -23.5532 26.5885 -87.2697 -24.4026 27.5885 -87.1485 -24.5532 27.5885 
-86.8777 -23.5532 26.0885 -86.7697 -23.5532 25.8881 -86.948 -23.0532 25.5885 
-88.0753 -24.5532 28.5885 -87.7697 -24.5532 28.2688 -87.602 -24.5532 28.0885 
-88.2697 -24.5532 28.7597 -87.2697 -22.0207 25.0885 -87.4558 -21.5532 25.0885 
-87.0494 -22.5532 25.0885 -90.3983 -21.5532 28.5885 -90.2697 -20.5532 28.4413 
-90.5175 -21.0532 28.5885 -90.4867 -20.5532 28.5885 -90.2697 -23.5532 29.4673 
-89.7697 -23.5532 29.1651 -90.2697 -23.0532 29.1555 -90.7697 -23.0532 29.4368 
-89.2697 -24.0532 29.1455 -89.7697 -24.0532 29.4901 -88.7066 -24.5532 29.0885 
-90.7697 -22.5532 29.1543 -91.1079 -22.0532 29.0885 -91.2697 -22.5532 29.3637 
-91.2697 -21.7479 29.0885 -90.7697 -21.5532 28.782 -88.7697 -19.7236 27.0885 
-88.3444 -19.5532 26.5885 -88.2697 -19.5532 26.4744 -89.2697 -20.0532 27.6258 
-88.1041 -20.0532 26.0885 -88.0162 -19.5532 26.0885 -89.7697 -20.1944 28.0885 
-87.7697 -20.5532 25.4337 -87.578 -21.0532 25.0885 -87.8034 -20.0532 25.5885 
-86.7697 -24.5532 27.0593 -86.7697 -24.1455 26.5885 -86.7697 -24.0532 26.4858 
-86.7697 -23.7084 26.0885 -87.2697 -24.5532 27.7254 -86.8396 -25.0532 27.5885 
-86.7697 -25.0532 27.4844 -86.5243 -24.0532 26.0885 -86.6196 -23.5532 25.5885 
-86.7697 -23.3297 25.5885 -86.7697 -23.0532 25.097 -87.7697 -24.9276 28.5885 
-87.2697 -25.041 28.0885 -87.6834 -25.0532 28.5885 -88.2697 -24.979 29.0885 
-88.2 -25.0532 29.0885 -87.0528 -22.0532 24.5885 -87.2697 -21.5532 24.6986 
-87.2697 -21.3834 24.5885 -86.7697 -22.7179 24.5885 -86.8477 -22.5532 24.5885 
-90.332 -20.0532 28.5885 -90.7697 -21.0532 28.718 -90.7697 -20.5532 28.7545 
-90.7697 -20.0532 28.8596 -90.2697 -23.7586 29.5885 -90.543 -23.5532 29.5885 
-89.9395 -24.0532 29.5885 -90.7697 -23.3647 29.5885 -91.1583 -23.0532 29.5885 
-89.4255 -24.5532 29.5885 -89.2697 -24.5532 29.4887 -89.7697 -24.2186 29.5885 
-88.9237 -25.0532 29.5885 -88.7697 -25.0532 29.4934 -89.2697 -24.7103 29.5885 
-91.2697 -22.0532 29.1629 -91.2697 -22.9815 29.5885 -91.7697 -22.688 29.5885 
-91.7697 -22.5532 29.5239 -91.7697 -22.0532 29.3229 -91.3466 -21.5532 29.0885 
-91.7697 -21.5532 29.2377 -91.2697 -21.0532 28.9853 -89.1013 -19.5532 27.5885 
-88.7697 -19.5532 27.1262 -88.5957 -19.0532 27.0885 -88.2697 -19.1916 26.5885 
-89.7697 -20.0532 28.1237 -89.5538 -19.5532 28.0885 -89.2697 -19.5532 27.8017 
-87.7697 -19.9203 25.5885 -87.7697 -19.5532 25.7451 -87.7697 -19.0532 25.8874 
-87.8974 -19.0532 26.0885 -87.6376 -20.5532 25.0885 -87.6075 -20.0532 25.0885 
-87.3488 -21.0532 24.5885 -87.4032 -20.5532 24.5885 -86.4713 -24.5532 26.5885 
-86.4899 -25.0532 27.0885 -86.7697 -25.1818 27.5885 -86.2697 -24.4546 26.0885 
-86.2697 -24.1304 25.5885 -86.2697 -24.5532 26.2152 -86.2697 -24.0532 25.4361 
-86.4497 -23.5532 25.0885 -86.5902 -23.0532 24.5885 -87.7697 -25.0532 28.6876 
-86.9723 -25.5532 28.0885 -87.2697 -25.5532 28.414 -87.4336 -25.5532 28.5885 
-87.9073 -25.5532 29.0885 -88.7697 -25.2025 29.5885 -88.2697 -25.5532 29.41 
-86.7697 -22.5532 24.4287 -86.7697 -22.2074 24.0885 -86.841 -22.0532 24.0885 
-87.0296 -21.5532 24.0885 -87.2234 -21.5532 24.5885 -87.2697 -21.0532 24.4124 
-86.6172 -22.5532 24.0885 -90.2697 -19.8909 28.5885 -91.2697 -20.5532 29.0152 
-91.2697 -20.2601 29.0885 -91.1432 -20.0532 29.0885 -90.8877 -19.5532 29.0885 
-90.7697 -19.5532 29.0059 -90.2697 -19.5532 28.6869 -90.2697 -24.0532 29.7558 
-90.7697 -23.5532 29.69 -90.7697 -24.0532 29.9819 -89.7697 -24.5532 29.7841 
-91.2697 -23.5532 29.8814 -89.2697 -25.0532 29.7879 -88.7697 -25.5532 29.7618 
-91.7697 -23.0532 29.7653 -91.9783 -22.5532 29.5885 -92.2697 -22.3601 29.5885 
-92.2697 -22.0532 29.4626 -92.2697 -21.5532 29.3719 -91.4383 -21.0532 29.0885 
-91.7697 -21.0532 29.2315 -91.4093 -20.5532 29.0885 -88.7697 -19.0532 27.3129 
-88.9645 -19.0532 27.5885 -88.2697 -19.0532 26.6469 -88.2697 -18.5532 26.9879 
-88.3455 -18.5532 27.0885 -89.7697 -19.5532 28.279 -89.2697 -19.0532 27.98 
-89.3686 -19.0532 28.0885 -87.5053 -19.5532 25.0885 -87.6861 -19.5532 25.5885 
-87.6053 -19.0532 25.5885 -87.7697 -18.664 26.0885 -87.4859 -18.5532 25.5885 
-87.9712 -18.5532 26.5885 -87.405 -20.0532 24.5885 -87.2697 -20.5532 24.2811 
-87.2697 -20.0532 24.3247 -86.2697 -24.89 26.5885 -86.2697 -25.4566 27.0885 
-86.2697 -25.0532 26.7439 -86.5815 -25.5532 27.5885 -86.7697 -25.5532 27.8466 
-86.2124 -24.5532 26.0885 -86.0133 -24.5532 25.5885 -85.9786 -25.0532 26.0885 
-86.1707 -24.0532 25.0885 -86.2697 -23.8829 25.0885 -86.2697 -23.5706 24.5885 
-86.2697 -23.5532 24.5617 -86.2697 -23.2651 24.0885 -86.3917 -23.0532 24.0885 
-87.7697 -25.5532 28.9451 -86.8025 -26.0532 28.0885 -87.2697 -26.0145 28.5885 
-87.7956 -26.0532 29.0885 -88.5014 -25.5532 29.5885 -88.3359 -26.0532 29.5885 
-86.7697 -22.0532 23.8997 -86.4883 -22.5532 23.5885 -86.7697 -21.8067 23.5885 
-86.8633 -21.5532 23.5885 -87.0034 -21.0532 23.5885 -87.1569 -21.0532 24.0885 
-90.1418 -19.5532 28.5885 -91.2697 -20.0532 29.1564 -91.7697 -20.0532 29.3831 
-91.7697 -20.5532 29.251 -91.2697 -19.5532 29.3369 -90.7697 -19.332 29.0885 
-90.2697 -19.0532 28.8858 -90.4007 -24.5532 30.0885 -90.2697 -24.5532 30.0212 
-90.7697 -24.233 30.0885 -91.0153 -24.0532 30.0885 -89.8384 -25.0532 30.0885 
-90.2697 -24.6694 30.0885 -91.2697 -23.8955 30.0885 -91.7697 -23.6835 30.0885 
-91.7697 -23.5532 30.0166 -89.3751 -25.5532 30.0885 -89.2697 -25.5532 30.0292 
-89.2697 -25.7419 30.0885 -88.7697 -26.0532 29.8374 -92.0533 -23.5532 30.0885 
-92.2697 -23.0532 29.8942 -92.2697 -22.5532 29.6738 -92.6456 -22.0532 29.5885 
-92.7697 -22.5532 29.8119 -92.7697 -21.7386 29.5885 -92.8224 -21.5532 29.5885 
-92.7697 -21.0532 29.5527 -92.2697 -21.0532 29.3818 -88.7697 -18.5532 27.6304 
-89.2697 -18.8128 28.0885 -89.1529 -18.5532 28.0885 -88.2697 -18.4131 27.0885 
-89.8871 -19.0532 28.5885 -89.7697 -19.0532 28.4834 -87.2971 -19.5532 24.5885 
-87.2697 -19.3981 24.5885 -87.2697 -19.0532 24.7784 -87.3811 -19.0532 25.0885 
-87.2697 -18.6821 25.0885 -87.7697 -18.5532 26.1909 -87.7269 -18.5532 26.0885 
-87.2697 -18.5532 25.1853 -87.2697 -18.1488 25.5885 -87.4727 -18.0532 26.0885 
-87.2697 -18.0532 25.6917 -88.0404 -18.0532 27.0885 -87.7697 -18.1871 26.5885 
-87.2016 -20.5532 24.0885 -87.1662 -20.0532 24.0885 -87.1003 -19.5532 24.0885 
-86.1852 -25.0532 26.5885 -86.2697 -25.5532 27.1523 -85.9969 -25.5532 26.5885 
-86.4254 -26.0532 27.5885 -86.2697 -26.0532 27.3737 -85.7697 -25.0636 25.5885 
-85.7697 -24.6948 25.0885 -85.8515 -24.5532 25.0885 -85.7697 -25.6378 26.0885 
-85.9868 -24.0532 24.5885 -86.0663 -23.5532 24.0885 -86.2697 -23.0532 23.6247 
-85.9365 -23.5532 23.5885 -86.7697 -26.158 28.0885 -87.1616 -26.5532 28.5885 
-87.7697 -26.1547 29.0885 -87.2697 -26.5532 28.689 -88.2697 -26.2844 29.5885 
-86.6792 -22.0532 23.5885 -86.2697 -22.8838 23.0885 -86.4234 -22.5532 23.0885 
-86.5894 -22.0532 23.0885 -86.7697 -21.5317 23.0885 -86.8873 -21.0532 23.0885 
-86.9107 -20.5532 23.0885 -87.0569 -20.5532 23.5885 -92.2697 -20.0726 29.5885 
-92.2697 -20.5532 29.4419 -92.2504 -20.0532 29.5885 -91.7697 -19.5627 29.5885 
[...]
POINT_DATA 10001
SCALARS scalars float
LOOKUP_TABLE default
-5.23578 -4.60167 -5.27355 -5.08944 -4.94483 -5.33373 -4.72289 -4.46517 -3.9884 
-4.34798 -5.13969 -5.39993 -5.94932 -5.75327 -5.05479 -5.71819 -4.87195 -5.03497 
-4.22521 -4.39953 -4.19641 -3.93298 -4.9459 -3.76836 -4.14244 -5.64434 -6.45451 
-6.30793 -6.63278 -6.57074 -6.09585 -5.58812 -5.36918 -6.05653 -4.28882 -4.44873 
-5.00663 -5.64925 -4.17905 -3.56568 -3.70356 -4.29954 -3.84684 -4.62959 -4.80847 
-5.32587 -5.49616 -3.50486 -3.40106 -6.31442 -6.29822 -6.39585 -6.84498 -6.6336 
-6.68773 -7.13197 -6.41379 -6.17879 -6.26937 -4.57871 -5.069 -4.15322 -5.17731 
-5.69373 -6.29175 -3.39244 -3.25813 -3.85643 -4.12658 -3.84529 -4.68256 -4.25009 
-3.74845 -3.34914 -4.99336 -5.2001 -5.87894 -5.71919 -2.98131 -2.84107 -6.90525 
-6.40462 -6.90813 -7.0917 -7.2716 -7.3262 -6.8518 -7.04224 -6.3304 -6.96625 
-7.53332 -7.6033 -7.48013 -6.93553 -6.00696 -4.716 -5.31046 -4.27564 -4.4888 
-4.01467 -5.80352 -5.85009 -6.49505 -3.29004 -3.1427 -3.47529 -4.05902 -3.47245 
-3.69345 -4.52732 -4.46853 -3.11726 -2.89287 -2.70261 -5.77537 -5.3502 -5.11385 
-6.01895 -2.42876 -2.59605 -2.28358 -7.03892 -7.01192 -7.17419 -7.24936 -7.6826 
-7.16706 -7.38647 -7.8974 -6.89392 -7.46149 -6.52285 -7.65582 -7.81627 -8.12027 
-7.93433 -7.40897 -5.40287 -4.87891 -4.75546 -5.9652 -4.17875 -4.34107 -6.54932 
-3.31615 -2.78129 -3.64532 -3.83365 -3.43637 -3.35432 -3.04771 -4.6431 -4.3433 
-4.22105 -2.89649 -2.56238 -2.64042 -2.18003 -5.63243 -4.96984 -5.59727 -6.30631 
-6.27575 -1.8873 -2.17942 -2.12894 -1.70968 -1.74727 -7.28182 -7.42249 -7.54052 
-7.73466 -7.80434 -7.93061 -7.6405 -8.04092 -8.24566 -7.33022 -7.16121 -7.5341 
-7.06567 -6.90545 -7.24337 -7.9733 -8.30801 -8.60661 -8.5548 -8.40992 -7.99801 
-8.37783 -7.93012 -6.0196 -5.49465 -5.58648 -4.99569 -6.61607 -6.63447 -6.27 
-3.68698 -3.972 -4.30024 -4.51041 -2.9704 -3.15211 -2.26084 -2.45924 -3.28741 
-3.75329 -4.32181 -2.75739 -2.33192 -2.86851 -2.20394 -2.04166 -1.64113 -5.72399 
-4.88054 -5.29319 -5.51798 -6.16898 -6.99359 -6.61746 -1.57202 -1.30387 -1.35791 
-1.55074 -2.06435 -2.07925 -1.20493 -7.29206 -8.0365 -8.15193 -8.12506 -8.10973 
-7.98097 -7.46707 -7.97168 -8.13958 -8.43561 -7.68578 -8.58143 -7.4169 -7.1641 
-8.75541 -8.73739 -8.92821 -8.84095 -8.8037 -8.11328 -8.42915 -8.17697 -5.83881 
-6.14447 -5.10151 -5.57907 -5.69619 -6.89142 -6.59348 -6.72473 -3.33139 -3.81363 
-3.98308 -4.56729 -4.024 -5.11378 -2.66114 -2.15173 -2.39707 -3.20845 -3.7009 
-3.35667 -4.27822 -4.58344 -2.73037 -2.19432 -2.64477 -1.84998 -1.9171 -1.51321 
-1.49038 -1.06253 -1.10531 -5.98083 -4.86915 -5.49676 -6.16826 -6.88304 -6.8524 
-1.16181 -0.693582 -0.9427 -1.05101 -1.27343 -1.75851 -7.32372 -8.25072 -8.72064 
-8.52177 -8.51473 -8.11002 -7.78371 -8.30399 -8.17126 -8.53592 -8.65904 -7.98143 
-8.22511 -8.78414 -9.05674 -8.98729 -7.75367 -7.64787 -7.71343 -7.27634 -9.21884 
-9.17208 -8.99128 -9.18636 -9.42779 -9.28558 -9.3347 -9.32136 -8.8633 -6.30551 
-6.77329 -6.82834 -5.69441 -7.36332 -7.22433 -2.84003 -2.8823 -3.13282 -3.4556 
-3.47524 -4.67801 -4.56844 -3.58 -4.00354 -4.54639 -4.11179 -5.66301 -5.09388 
-1.96496 -2.1667 -2.33783 -3.1831 -3.7683 -3.1527 -4.27757 -4.02812 -2.10707 
-1.63575 -1.67097 -2.62049 -1.32517 -0.979864 -0.626232 -0.467608 -4.87042 -5.52458 
-6.169 -5.65751 -6.8498 -0.848241 -0.124187 -0.201726 -0.363029 -0.586155 -0.804094 
-1.02065 -1.49145 -9.17934 -8.98107 -9.17123 -8.99241 -8.88571 -8.28786 -8.10374 
-8.09462 -7.6324 -7.3811 -8.66952 -8.40438 -8.87879 -9.10768 -8.13558 -9.26536 
-7.68681 -8.29839 -7.80572 -7.70928 -7.37332 -9.3994 -9.67426 -9.34712 -9.65674 
-9.58713 -9.29921 -9.90224 -9.84497 -9.71747 -9.70552 -9.425 -9.38948 -6.26712 
-6.73884 -7.41726 -6.98777 -6.8725 -6.00003 -2.40883 -2.93425 -2.94609 -3.47447 
-3.45204 -3.99646 -4.52894 -5.0879 -5.07416 -4.73323 -3.97451 -5.22204 -5.62959 
-6.23935 -6.21794 -1.69221 -1.83748 -3.71005 -3.16745 -2.96314 -4.32881 -4.13423 
-3.76545 -2.08803 -1.58114 -1.31081 -2.63221 -1.16331 -0.781134 -0.721812 -0.367767 
-0.082577 -1.38778e-17 1.38778e-17 0 -4.99723 -5.67622 -4.98943 -6.27204 -6.28102 
-6.90941 1.38778e-17 0 -1.38778e-17 -1.38778e-17 -1.38778e-17 0 -0.128082 -0.241522 
-0.350537 -0.56343 -1.21415 -9.4367 -9.62013 -9.46451 -9.33228 -8.87644 -8.84184 
-8.64889 -8.09374 -8.59425 -8.10924 -9.08749 -8.86709 -8.7785 -8.59675 -8.94126 
-9.24086 -9.53553 -8.68789 -9.6488 -9.83749 -7.9214 -8.63383 -8.39621 -8.63382 
-7.72176 -7.42118 -7.91649 -6.93483 -9.80843 -10.1304 -10.2122 -9.98316 -10.3289 
-10.2353 -10.1263 -10.1099 -9.75379 -9.88042 -6.85799 -6.82451 -7.49116 -1.89426 
-1.89411 -2.27939 -2.41308 -2.40998 -2.92704 -3.44506 -3.72646 -4.52183 -5.46992 
-5.1667 -5.00578 -4.9001 -4.33185 -3.94995 -5.70946 -6.42311 -6.07597 -6.66176 
-6.13748 -1.33236 -1.3736 -1.51695 -3.21914 -2.6879 -4.41012 -4.02182 -3.85209 
-3.29201 -1.57184 -2.11432 -1.06974 -0.645758 -0.300753 1.38778e-17 2.77556e-17 0 
0 -5.61251 -5.04269 -4.57056 -6.3192 -5.95216 -6.91932 0 0 
-0.0981226 0 -3.46945e-18 1.38778e-17 -0.105297 -0.460963 -0.733939 -0.78644 -1.05992 
-10.0696 -9.86112 -10.0411 -9.84486 -9.63351 -9.60316 -9.21631 -8.82796 -8.79535 
-8.78358 -8.52295 -7.91172 -8.05125 -9.30366 -9.49378 -9.06622 -9.20786 -9.73248 
-8.75737 -9.94365 -10.1494 -10.3647 -8.35841 -8.65734 -8.86708 -7.75662 -7.23332 
-6.96753 -8.14138 -10.4227 -10.4982 -10.7574 -10.5923 -10.4027 -10.6892 -10.7766 
-10.6282 -10.531 -10.5182 -10.1895 -10.3104 -7.42077 -7.1919 -6.7542 -7.39362 
-7.29071 -6.87418 -1.37746 -1.8871 -2.40679 -2.92858 -3.44895 -3.79957 -3.26861 
-4.22365 -5.3694 -5.23872 -4.74596 -4.68723 -4.11585 -5.68405 -5.81075 -6.44682 
-7.12306 -7.05922 -0.872008 -1.38189 -3.07617 -2.75974 -2.2405 -2.17205 -4.45402 
-3.89303 -3.87818 -3.33047 -1.61106 -1.25934 -1.07425 -1.05944 -0.82804 -0.541323 
-0.551498 -0.125503 0 -5.66165 -5.34945 -5.07858 -4.50732 -4.46609 -6.37205 
-5.72071 -6.64492 0 -6.93889e-18 -3.46945e-18 0 -0.220082 -0.247371 -0.329496 
-0.83032 -10.4862 -10.5631 -10.3052 -10.2133 -10.6139 -10.16 -9.70541 -9.53355 
-10.0779 -9.51411 -9.12474 -9.08687 -8.73366 -8.68198 -8.35582 -8.02759 -9.93975 
-9.63637 -10.0095 -9.90772 -9.30436 -10.2457 -10.3044 -10.6303 -10.5677 -10.8514 
-10.7482 -8.69683 -8.80884 -9.24954 -7.7902 -7.7054 -7.04119 -7.14185 -7.35419 
-7.94835 -8.04456 -8.31538 -8.60329 -10.8618 -11.105 -11.2173 -10.9735 -11.0591 
-11.1795 -11.0245 -10.9223 -10.9186 -10.5888 -10.7087 -7.94033 -7.63701 -7.80603 
-7.6858 -0.872813 -0.864332 -1.28489 -1.3695 -1.88436 -1.89137 -2.264 -2.4103 
-2.83091 -3.0128 -3.19592 -3.6461 -5.10752 -5.63936 -5.27246 -4.48749 -4.28454 
-4.00622 -5.77569 -6.47172 -6.08242 -6.24743 -7.22606 -6.88802 -0.370088 -2.78837 
-2.71857 -2.27284 -1.76505 -1.72977 -1.66756 -3.9285 -3.65283 -4.12286 -3.35594 
-2.81992 -1.53932 -1.098 -1.16009 -0.597849 -0.548858 -0.120653 -0.045146 0 
-1.38778e-17 -5.10872 -4.92723 -4.57058 -4.42696 -4.00981 -3.95012 -6.40822 -6.2617 
-5.75085 -6.85385 -5.59595 0 -1.38778e-17 0 -2.77556e-17 -2.77556e-17 -10.8984 
-10.7266 -11.1337 -10.6794 -10.6229 -11.0206 -11.1321 -10.8677 -10.4388 -10.3977 
-9.62121 -10.3007 -10.2268 -9.45951 -10.07 -9.44664 -9.35764 -9.2982 -8.99025 
-8.59674 -8.4898 -9.81503 -10.0514 -10.1811 -10.4916 -9.74474 -10.7539 -11.1912 
-10.9529 -11.2573 -11.118 -8.75069 -9.50414 -9.07207 -7.23121 -6.69418 -6.5448 
-7.80479 -8.153 -7.90403 -8.78302 -8.88862 -11.4614 -11.5924 -11.4852 -11.3676 
-11.4238 -11.582 -11.3172 -11.3047 -10.9815 -11.1032 -11.2134 -8.31562 -8.02145 
-7.58569 -8.20516 -8.12564 -0.362954 -0.35797 -0.354485 -0.863225 -1.38403 -1.89497 
-2.24246 -2.75269 -3.03518 -2.52002 -3.39586 -5.04984 -5.55042 -6.20054 -6.08919 
-5.72116 -4.93399 -4.45145 -3.93707 -4.36824 -6.58073 -6.68203 -7.31503 -2.77556e-17 
0 -0.0297754 -2.28287 -1.78482 -1.61349 -1.25854 -1.30543 -3.36666 -3.20198 
-2.85082 -2.29353 -0.72323 -0.663103 -0.0994181 -1.38778e-17 0 0 0 
-5.21528 -5.08844 -4.60765 -4.7309 -4.08326 -3.57667 -5.94546 -5.87317 -5.71038 
-5.26365 -11.2889 -11.3395 -11.5344 -11.7214 -11.4482 -10.977 -10.9984 -11.3873 
-10.5396 -10.5485 -11.0587 -10.5414 -10.1989 -9.60994 -9.52426 -9.16363 -9.75788 
-9.32361 -9.01696 -8.71095 -10.5917 -10.4638 -10.0933 -10.923 -9.92066 -11.3306 
-11.5727 -11.3624 -11.5787 -11.7387 -9.5885 -9.18351 -9.04712 -7.47264 -6.8387 
-6.75151 -6.30975 -6.06481 -6.29771 -8.39599 -7.93341 -7.67681 -8.79482 -11.8316 
-11.9683 -11.8598 -11.9164 -11.7501 -11.8139 -11.9601 -12.1174 -11.6936 -11.6731 
-11.7415 -11.3706 -11.4854 -11.5827 -11.6599 -8.03532 -8.88125 -8.77387 -8.3496 
3.46945e-18 -2.77556e-17 0 -0.0521178 -0.3725 -0.875933 -0.855579 -1.29018 -1.75413 
-1.3422 -1.6866 -2.0693 -2.25078 -2.46322 -2.89956 -3.096 -3.3517 -4.82475 
-5.50998 -6.02202 -6.56616 -6.2146 -5.98165 -4.91537 -3.81874 -4.8287 -4.44454 
-4.29969 -7.16979 -7.03274 -7.79604 0 -3.46945e-18 0 -1.83284 -1.32622 
-1.28484 -1.27738 -0.765211 -0.750811 -0.738156 -3.43745 -2.88603 -2.51872 -2.34394 
-0.22644 -0.169134 -1.38778e-17 1.38778e-17 -4.85348 -4.40199 -5.39353 -4.20234 -3.65825 
-3.45534 -11.7948 -11.9136 -12.0659 -11.8624 -12.2256 -11.5326 -11.4377 -11.2055 
-11.9497 -11.6879 -10.9184 -10.8666 -11.4813 -11.4941 -10.0623 -10.7519 -10.5649 
-10.0529 -9.83868 -9.92767 -9.55673 -9.04829 -10.9665 -10.8238 -10.6522 -10.2688 
-9.99734 -11.6566 -11.3692 -11.7692 -11.7171 -11.9678 -12.1247 -9.40557 -9.9686 
-10.1855 -7.06979 -6.97424 -6.85434 -6.51795 -5.85948 -5.74476 -8.65887 -8.01085 
-7.49547 -7.38922 -9.17184 -12.2172 -12.3255 -12.5563 -12.2214 -12.2799 -12.1784 
-12.2319 -12.332 -12.4881 -12.0776 -12.0584 -12.0949 -12.2043 -11.8464 -11.9756 
-12.0185 -12.259 -8.63641 -8.60371 -8.4494 -9.27047 0 -0.368301 -6.93889e-18 
0 -0.31667 -0.803869 -1.03741 -1.51181 -2.00372 -2.35062 -1.83666 -2.86605 
-3.28654 -2.76361 -5.39564 -6.40809 -7.09631 -6.91769 -5.75885 -6.30443 -3.74096 
-4.69804 -5.15117 -4.81345 -4.27803 -4.06895 -7.53799 -8.18704 -7.95289 -1.87232 
-2.35812 -1.38958 -1.1743 -0.809575 -0.789102 -0.260607 -0.247875 -0.244314 -2.97076 
-2.79016 -2.44916 0 6.93889e-18 -2.77556e-17 1.38778e-17 -1.38778e-17 -4.9211 -4.39683 
-5.07585 -4.25718 -5.52839 -3.81866 -3.13266 -3.0056 -12.2418 -12.4369 -12.566 
-12.5756 -12.9187 -11.7815 -12.2392 -11.8786 -12.2014 -12.5969 -11.0371 -10.9811 
-11.9945 -11.8086 -11.7489 -11.655 -10.8128 -10.2378 -9.64316 -9.49004 -9.30909 
-11.227 -11.0357 -10.4684 -11.7463 -11.6697 -12.1151 -12.0916 -12.1989 -12.4838 
-12.3503 -12.4614 -12.6869 -9.69605 -10.3587 -7.2212 -6.65857 -6.36332 -6.07885 
-5.42612 -5.32806 -5.13799 -5.5944 -8.94933 -8.71628 -8.31426 -8.21614 -7.70706 
-7.38106 -9.25374 -9.57845 -12.6122 -12.6942 -12.9167 -12.6667 -12.5568 -12.6424 
-12.699 -12.858 -12.4549 -12.4226 -12.4596 -12.5624 -12.7241 -12.3794 -12.5987 
-8.70414 -9.1025 -8.83712 -8.63454 -9.3712 -9.79473 0 0 2.77556e-17 
-0.0994056 -0.562237 -0.419677 -0.854085 -1.11442 -1.32852 -2.08821 -2.25332 -1.76757 
-2.73037 -3.20661 -6.49721 -7.24006 -6.70666 -7.38032 -5.4636 -6.05141 -3.62132 
-3.79433 -4.61218 -5.02326 -5.18342 -4.90903 -4.3656 -3.99397 -8.05541 -8.72892 
-1.92862 -1.40568 -1.55187 -0.984453 -0.912012 -0.89411 -0.373585 -0.303889 -0.155902 
0 0 -2.77556e-17 6.93889e-18 -6.93889e-18 -2.87967 -2.49201 -4.48439 -4.69333 
-4.03602 -3.3327 -3.19822 -12.8168 -13.2721 -12.9537 -12.9315 -13.0333 -12.4903 
-12.6125 -12.6707 -12.7592 -13.0685 -11.4725 -11.4692 -11.1986 -11.0568 -12.3217 
-11.9161 -11.9211 -12.3998 -10.9226 -10.7436 -10.2224 -10.5782 -9.99692 -11.6222 
-11.415 -11.1454 -10.7701 -12.0111 -11.96 -12.4715 -12.5133 -12.8666 -12.7988 
-13.0208 -13.139 -10.0462 -10.4049 -6.90215 -6.78223 -6.49444 -6.21584 -5.93776 
-5.6682 -4.98159 -9.13158 -8.52058 -8.83834 -8.24472 -7.83053 -7.43495 -7.27803 
-7.0742 -9.57423 -13.0136 -13.0747 -13.2962 -13.0557 -12.9229 -13.0593 -13.2368 
-12.8253 -12.7893 -12.8265 -12.9088 -13.0628 -12.7941 -12.951 -9.32738 -9.404 
-9.50949 -10.3101 -9.92666 0 -0.0274168 0 -1.38778e-17 -0.351197 -0.739494 
-1.24142 -1.74812 -2.18538 -1.69722 -2.69389 -3.07288 -7.2852 -6.75632 -6.6567 
-7.91694 -7.48111 -5.35447 -5.81512 -6.29152 -3.56844 -3.84252 -3.34628 -4.23649 
-5.24405 -4.30966 -4.5717 -4.69161 -8.58236 -8.17288 -8.87827 -2.01878 -1.6839 
-1.09758 -1.67753 -0.567461 -0.439273 -0.426267 1.38778e-17 0 0 0 
0 1.38778e-17 -3.11124 -2.81733 -2.66791 -2.61213 -2.06372 -4.29348 -3.60815 
-3.40164 -13.2602 -13.591 -13.4097 -13.5743 -13.2786 -13.0017 -13.0894 -12.8271 
-13.3494 -11.79 -11.3015 -11.1055 -12.6063 -12.4392 -12.1818 -12.055 -12.7253 
-10.8747 -10.671 -11.7774 -11.3554 -11.088 -12.3262 -12.8299 -12.4053 -12.895 
-13.1559 -13.3841 -13.398 -13.24 -12.9065 -10.3166 -9.99836 -10.7883 -6.36694 
-6.98402 -6.17086 -5.74334 -5.60262 -5.19232 -4.78615 -4.28243 -8.69397 -9.16723 
-8.10941 -7.90171 -7.18237 -7.72257 -9.90293 -9.1823 -13.4257 -13.6641 -13.4511 
-13.2679 -13.4153 -13.1898 -13.4939 -13.5507 -13.6064 -13.1747 -12.8786 -12.9397 
-13.1346 -13.2741 -13.3917 -13.4139 -13.2249 -13.2709 -13.4235 -9.49621 -9.2398 
-10.5381 -10.4221 -10.2783 -10.0532 0 2.77556e-17 -0.222814 -0.723681 -1.21446 
-2.09395 -2.58198 -1.13049 -1.60378 -2.87982 -7.05978 -6.42038 -7.71409 -5.53747 
-5.6911 -6.36343 -6.22054 -4.16413 -3.65525 -2.72511 -3.00649 -3.15626 -4.64751 
-4.81418 -5.07037 -9.03887 -8.35915 -1.27981 -0.678197 -1.78382 -1.5856 -2.10507 
-0.193664 -0.0565333 3.46945e-18 3.46945e-17 2.08167e-17 -2.99614 -2.89646 -2.67839 -2.40877 
-2.24168 -3.79563 -3.33715 -4.09991 -13.6574 -13.9365 -13.7625 -13.6794 -13.8737 
-13.6028 -13.3125 -13.4287 -13.505 -13.1211 -13.9149 -11.8884 -11.6359 -11.4011 
-12.7686 -12.2519 -12.0887 -12.5412 -13.0532 -12.7781 -12.5783 -11.0894 -10.4979 
-11.882 -11.2179 -11.2194 -11.3359 -12.2431 -12.4055 -13.5171 -13.7511 -13.4206 
-13.0817 -12.44 -12.7109 -12.9202 -10.6227 -10.0681 -10.2539 -10.5693 -10.7929 
-6.6885 -6.02786 -6.52195 -5.4241 -5.34859 -4.70549 -4.46559 -8.44055 -8.68453 
-8.81876 -7.87231 -8.36092 -7.03128 -7.51529 -7.66842 -9.70522 -9.5859 -9.5161 
-9.21008 -13.8556 -14.0415 -14.0107 -13.8567 -13.6242 -13.7738 -13.5404 -13.9338 
-13.7976 -14.1468 -13.1466 -13.163 -13.2262 -13.6263 -13.5651 -13.9169 -13.6009 
-13.6587 -13.5687 -13.8717 -13.6256 -9.9883 -9.67265 -9.58495 -10.6593 -10.0902 
1.38778e-17 2.77556e-17 -1.38778e-17 -0.186344 -0.182752 -0.322701 -0.672912 -1.53918 -1.95262 
-2.41796 -1.06502 -2.29592 -7.01963 -7.46539 -8.02035 -7.78594 -5.6299 -5.76433 
-6.8584 -6.51131 -5.89633 -5.98287 -3.98715 -4.51947 -3.59752 -3.47746 -3.12151 
-2.19711 -2.67389 -2.98628 -2.48714 -4.96484 -4.35532 -5.45934 -9.02569 -9.55676 
-8.91057 -8.33582 -1.40598 -0.866218 -0.705971 -1.8636 -2.03282 2.77556e-17 1.38778e-17 
-0.347863 -2.77556e-17 -0.347984 -2.77556e-17 0 0 -3.1519 -2.51625 -3.9903 
-3.28264 -3.99618 -14.0583 -14.2288 -14.121 -13.9971 -14.3024 -14.0467 -14.1893 
-13.7644 -14.0853 -13.6709 -13.509 -13.2775 -13.1384 -14.2537 -11.8949 -11.5011 
-12.4806 -12.0302 -12.581 -12.5794 -12.025 -10.7855 -10.9784 -11.8804 -11.3296 
-10.7651 -10.7717 -11.8826 -13.9177 -13.4435 -12.9578 -12.936 -12.4185 -12.4396 
-10.0433 -9.67938 -10.2255 -10.5938 -10.2053 -6.24937 -5.92442 -7.09359 -6.93879 
-6.45116 -5.38642 -4.69087 -8.58364 -9.01016 -8.078 -8.14119 -8.00225 -7.64654 
-7.46164 -7.34506 -9.5634 -9.1829 -14.2336 -14.2854 -13.9454 -14.3427 -14.4319 
-14.3039 -13.7458 -14.0331 -14.3031 -14.1343 -14.0696 -13.9066 -13.4941 -14.4489 
-14.4946 -14.3851 -13.5069 -13.7385 -13.6966 -13.9153 -14.0255 -14.1936 -14.2391 
-14.4052 -14.0964 -14.185 -10.1056 -10.6932 2.77556e-17 0 -2.77556e-17 -0.157542 
-0.608375 -0.0607907 -1.43529 -1.70919 -0.974678 -7.16582 -7.07237 -7.68921 -6.50186 
-5.85201 -3.87633 -3.31812 -1.99393 -2.83187 -1.96423 -2.32574 -4.89787 -5.04816 
-3.96579 -4.19794 -4.67656 -5.11233 -5.57289 -8.6254 -9.47036 -9.24085 -8.83868 
-8.24344 -1.47899 -1.34362 -1.06181 -0.550255 -1.30987 -2.16569 -1.63929 -2.44733 
-2.38515 0 -0.185022 -2.71273 -2.5601 -4.15547 -3.96484 -3.51659 -3.31582 
-14.4658 -14.5285 -14.6841 -14.5167 -14.5794 -14.4748 -14.4418 -14.5156 -14.871 
-13.7233 -13.7111 -14.3758 -13.775 -13.1428 -13.1688 -13.1375 -13.1399 -12.5819 
-11.6946 -11.4887 -10.9713 -11.4824 -12.3763 -12.1434 -12.0262 -12.0253 -11.8736 
-11.4819 -10.4398 -10.4517 -11.3355 -10.7747 -10.6247 -11.8977 -13.4689 -12.9803 
-12.4573 -11.918 -10.0546 -9.6606 -9.49219 -10.1988 -6.42276 -5.92418 -5.55629 
-7.1838 -6.80295 -5.33186 -4.83003 -4.67248 -8.69895 -8.19636 -8.13182 -8.19162 
-8.9022 -7.6911 -7.19231 -7.17222 -9.15726 -13.9601 -13.8122 -14.4052 -13.9391 
-13.9632 -14.6706 -14.0067 -14.6597 -14.374 -14.362 -14.2601 -14.2599 -13.9439 
-13.8446 -14.6825 -14.8413 -14.8443 -13.8554 -13.9299 -14.1052 -14.3284 -14.3738 
-14.3695 -14.564 -14.5402 -14.6517 -14.8282 -10.3993 -10.0207 0 0 
-1.38778e-17 -0.509834 0 6.93889e-18 0 0 -0.795601 -1.24015 -1.51247 
-7.66204 -7.06323 -6.36905 -6.6153 -6.06552 -5.76948 -3.82752 -3.64945 -3.14855 
-1.42806 -1.85322 -2.23552 -2.45546 -2.66383 -1.67078 -3.85786 -4.23944 -4.26369 
-4.70689 -4.94289 -5.18705 -9.93096 -9.41414 -9.3662 -8.79623 -8.15827 -7.79913 
-1.35205 -0.745995 -1.79281 -2.41615 -2.89538 1.38778e-17 -0.26408 -0.122989 -3.23421 
-4.3093 -4.73901 -4.04843 -3.69191 -15.1871 -14.8536 -14.4365 -14.6034 -14.9255 
-13.7635 -13.9347 -15.1698 -15.2991 -13.2003 -13.2363 -12.8079 -12.7304 -12.8711 
-12.5857 -11.4836 -10.9519 -10.4349 -11.1305 -12.0348 -12.0414 -12.0275 -11.4799 
-11.4873 -10.9428 -10.395 -9.91284 -9.91504 -11.353 -10.6303 -10.7833 -11.4741 
-13.488 -13.0006 -12.5951 -12.4752 -11.9446 -11.9343 -11.7257 -10.0794 -9.65592 
-9.49182 -9.1409 -10.2039 -6.51744 -6.41748 -6.08523 -5.77821 -5.65011 -5.34585 
-7.00838 -6.50271 -6.31593 -6.24766 -5.00089 -8.67922 -8.18195 -7.68654 -7.69669 
-8.73287 -7.19837 -6.70013 -6.6938 -6.70252 -6.60031 -13.4833 -14.3843 -13.9109 
-13.4379 -13.459 -14.2302 -15.0229 -15.19 -14.5281 -14.492 -14.6757 -14.8334 
-14.6141 -14.1998 -14.2094 -14.9348 -14.8292 -14.3631 -14.3773 -14.2616 -14.4652 
-14.6972 -14.5786 -14.8194 -14.6515 -14.809 -14.8704 -14.9881 -14.9004 -15.1117 
2.08167e-17 -0.315388 -0.197886 -0.444224 -0.58713 -1.04169 -0.994255 -7.55437 -7.19443 
-6.97958 -6.31721 -6.92536 -5.66851 -6.2063 -2.99958 -3.06242 -3.43459 -0.86719 
-1.34226 -2.17176 -2.45997 -1.98468 -1.17959 -1.49535 -3.46955 -3.87437 -4.11734 
-4.32646 -4.82293 -5.31196 -9.68508 -9.40229 -9.12505 -8.70761 -8.44472 -8.0809 
-7.47915 -1.38942 -0.924143 -0.295668 -1.96929 -2.4353 -3.08973 -3.28712 0 
-2.77556e-17 -2.77556e-17 2.77556e-17 -4.47106 -4.16733 -4.80477 -4.65756 -3.86128 -15.392 
-15.0382 -14.3395 -14.6972 -13.2907 -13.6493 -14.0206 -15.3502 -15.4433 -15.5064 
-12.9061 -12.6211 -12.6448 -12.6012 -10.9451 -10.5256 -10.4217 -9.90495 -9.91044 
-10.9423 -11.501 -12.0556 -11.6648 -11.5111 -11.4369 -10.9499 -11.2068 -10.9626 
-10.7227 -10.413 -10.4143 -11.3712 -10.7914 -10.2199 -11.3866 -12.9924 -12.4619 
-12.4906 -12.0833 -11.9501 -11.4079 -9.66639 -9.50647 -9.13795 -8.65653 -9.68501 
-5.67844 -5.34432 -5.27267 -4.99804 -6.02935 -5.83753 -5.77374 -8.15463 -7.65762 
-7.16118 -7.19038 -8.13717 -7.03745 -6.69529 -6.20005 -6.20191 -6.19503 -6.20471 
-6.1998 -13.8982 -12.9455 -13.4148 -13.5971 -12.9699 -15.4277 -15.355 -14.8257 
-14.8208 -15.2902 -15.0541 -15.1779 -14.9579 -14.9539 -14.6736 -14.5422 -14.5751 
-14.3526 -13.8829 -13.8919 -14.4536 -14.6994 -14.9997 -15.0319 -15.0238 -15.2057 
-15.1015 -15.2916 -15.3884 -15.4186 -15.5781 0 -1.04083e-17 -0.0770833 -0.386692 
-6.29751 -6.88742 -6.80007 -5.57687 -5.84748 -6.18844 -2.94581 -3.10386 -2.69899 
-0.696257 -2.23478 -1.77682 -0.69725 -1.01075 -0.944747 -1.21776 -3.0141 -3.10229 
-3.51793 -3.98258 -4.47791 -4.71176 -4.98945 -9.39353 -9.38559 -9.39546 -8.88511 
-8.88755 -8.89693 -8.89923 -8.38912 -8.39306 -8.05049 -7.43401 -7.37945 -1.4644 
-1.08531 -0.517948 -0.415729 1.38778e-17 2.77556e-17 -2.15246 -1.63427 -2.51842 -2.70177 
-3.27259 -3.42318 -4.03006 -4.21749 -3.86777 -3.73596 -4.38345 -14.8589 -14.9435 