# vtk DataFile Version 4.2
3D Slicer output. SPACE=LPS
ASCII
DATASET POLYDATA
POINTS 5186 float
-112.631 -30.2978 17.7674 -112.619 -30.3068 17.7913 -112.627 -30.2978 17.8206 
-112.728 -30.1526 17.4659 -112.61 -30.3153 17.8206 -112.889 -29.7978 17.8206 
-112.553 -30.2978 18.3206 -112.699 -29.7978 18.3206 -112.768 -30.1319 17.3206 
-112.521 -30.3625 18.1092 -112.981 -29.7978 17.3206 -112.978 -29.5024 17.8206 
-112.478 -30.4093 18.3206 -112.478 -30.2978 18.532 -112.826 -29.2978 18.3206 
-112.478 -29.7978 18.8053 -112.618 -29.2978 18.8206 -112.478 -29.7735 18.8206 
-112.78 -30.1319 17.1334 -112.478 -30.4217 18.1705 -112.978 -29.8548 16.8206 
-113.148 -29.2978 17.3206 -113.024 -29.2978 17.8206 -112.978 -29.2978 17.9602 
-112.404 -30.4543 18.3206 -112.274 -30.4336 18.6496 -112.341 -30.2978 18.8206 
-112.344 -30.4086 18.4757 -112.946 -28.7978 18.3206 -112.978 -28.7978 18.2207 
-112.78 -28.7978 18.8206 -112.301 -29.7978 19.3206 -112.478 -29.2978 19.1775 
-112.478 -29.0439 19.3206 -112.856 -30.0671 16.8206 -113.184 -29.2978 16.8206 
-113.002 -29.8766 16.3206 -112.978 -29.8999 16.5612 -113.031 -29.7978 16.3206 
-113.27 -28.7978 17.3206 -113.125 -28.7978 17.8206 -112.184 -30.4416 18.8206 
-112.077 -30.2978 19.3206 -112.978 -28.6968 18.3206 -112.942 -28.2978 18.8206 
-112.978 -28.2978 18.7232 -112.539 -28.7978 19.3206 -112.729 -28.2978 19.3206 
-112.427 -29.2978 19.3206 -112.041 -29.7978 19.8206 -111.978 -29.9564 19.8206 
-111.978 -30.2978 19.5028 -112.209 -29.2978 19.8206 -112.478 -28.7978 19.4625 
-112.331 -28.7978 19.8206 -113.326 -28.7978 16.8206 -113.185 -29.2978 16.3206 
-113.015 -29.8727 16.081 -113.055 -29.7978 15.8206 -113.419 -28.2978 17.3206 
-113.328 -28.2978 17.8206 -113.119 -28.2978 18.3206 -112.033 -30.4469 19.097 
-111.978 -30.4085 19.3206 -112.978 -28.1851 18.8206 -112.478 -28.3774 19.8206 
-112.891 -27.7978 19.3206 -112.978 -27.7978 19.1147 -112.668 -27.7978 19.8206 
-111.978 -29.7978 19.9105 -111.794 -30.2978 19.8206 -111.704 -29.7978 20.3206 
-111.708 -30.4437 19.6741 -111.817 -30.4316 19.4442 -111.901 -30.4551 19.3206 
-111.978 -29.1139 20.3206 -111.978 -29.2978 20.2019 -112.272 -28.2978 20.3206 
-112.097 -28.7978 20.3206 -113.457 -28.2978 16.8206 -113.355 -28.7978 16.3206 
-113.478 -28.2978 16.6906 -113.478 -28.4647 16.3206 -113.207 -29.2978 15.8206 
-113.008 -29.9353 15.8206 -113.012 -29.9378 15.3206 -113.003 -29.942 15.4822 
-113.077 -29.7978 15.3206 -113.478 -28.076 17.3206 -113.478 -27.7978 17.8423 
-113.287 -27.7978 18.3206 -111.978 -30.4611 19.2025 -111.917 -30.4554 19.2911 
-113.093 -27.7978 18.8206 -112.478 -28.2978 19.8884 -112.978 -27.3892 19.3206 
-113.24 -27.2978 18.8206 -112.75 -27.2978 19.8206 -112.478 -27.4859 20.3206 
-112.478 -27.7978 20.212 -111.627 -30.4409 19.8206 -111.509 -30.2978 20.3206 
-111.478 -29.5821 20.8206 -111.478 -29.7978 20.6834 -111.593 -29.2978 20.8206 
-111.907 -29.2978 20.3206 -111.978 -28.7978 20.5399 -111.978 -28.3577 20.8206 
-112.13 -27.7978 20.8206 -112.417 -27.7978 20.3206 -113.594 -27.7978 16.8206 
-113.386 -28.7978 15.8206 -113.478 -28.5614 15.8206 -113.542 -28.2978 16.3206 
-113.712 -27.7978 16.3206 -113.569 -28.2978 15.8206 -113.24 -29.2978 15.3206 
-112.978 -29.9865 15.0371 -113.078 -29.7978 14.8206 -112.978 -29.9679 14.8206 
-113.227 -29.2978 14.8206 -113.541 -27.7978 17.3206 -113.597 -27.2978 17.8206 
-113.478 -27.2978 18.2353 -112.994 -27.2978 19.3206 -113.296 -26.7978 18.8206 
-113.478 -26.7978 18.4777 -113.478 -27.1817 18.3206 -113.052 -26.7978 19.3206 
-112.814 -26.7978 19.8206 -112.978 -26.7978 19.4887 -112.507 -27.2978 20.3206 
-112.578 -26.7978 20.3206 -112.213 -27.2978 20.8206 -111.493 -30.4308 20.075 
-111.184 -30.2978 20.8206 -111.478 -30.3458 20.3206 -111.398 -29.7978 20.8206 
-111.478 -29.2978 20.9983 -111.26 -29.2978 21.3206 -111.084 -29.7978 21.3206 
-111.817 -28.7978 20.8206 -111.67 -28.2978 21.3206 -111.978 -27.7978 21.0803 
-113.657 -27.2978 17.3206 -113.739 -27.2978 16.8206 -113.425 -28.7978 15.3206 
-113.478 -28.6442 15.3206 -113.565 -28.2978 15.3206 -113.722 -27.7978 15.8206 
-113.843 -27.2978 16.3206 -113.828 -27.2978 15.8206 -113.675 -27.7978 15.3206 
-113.389 -28.7978 14.8206 -112.923 -30.0574 14.9564 -113.039 -29.7978 14.3206 
-112.978 -29.9218 14.3206 -113.2 -29.2978 14.3206 -112.953 -29.9608 14.3206 
-112.919 -30.0488 14.6979 -112.906 -30.0494 14.8206 -113.33 -28.7978 14.3206 
-113.698 -26.7978 17.8206 -113.317 -26.2978 18.8206 -113.103 -26.2978 19.3206 
-113.551 -26.7978 18.3206 -113.563 -26.2978 18.3206 -113.478 -26.2978 18.4869 
-112.888 -26.2978 19.8206 -112.978 -26.2978 19.6169 -112.658 -26.2978 20.3206 
-112.478 -26.7978 20.5119 -112.31 -26.7978 20.8206 -111.978 -27.2978 21.2093 
-111.978 -27.0114 21.3206 -111.478 -30.4353 20.1198 -111.274 -30.4156 20.524 
-111.106 -30.3809 20.8206 -110.978 -30.2978 21.1074 -110.978 -30.0499 21.3206 
-111.379 -30.4314 20.3206 -111.384 -30.4303 20.3064 -111.478 -28.7978 21.3224 
-110.978 -29.7978 21.4873 -110.978 -29.2978 21.7053 -110.978 -29.0193 21.8206 
-111.478 -28.2978 21.5521 -111.82 -27.7978 21.3206 -113.791 -26.7978 17.3206 
-113.875 -26.7978 16.8206 -113.478 -28.5225 14.8206 -113.534 -28.2978 14.8206 
-113.632 -27.7978 14.8206 -113.782 -27.2978 15.3206 -113.946 -26.7978 16.3206 
-113.91 -26.7978 15.8206 -113.869 -26.7978 15.3206 -113.748 -27.2978 14.8206 
-113.042 -29.7978 13.9692 -113.058 -29.7505 13.8679 -113.005 -29.8705 14.1136 
-112.978 -29.9288 14.22 -112.965 -29.9533 14.2788 -113.064 -29.7294 13.8206 
-113.198 -29.2978 13.8206 -113.307 -28.7978 13.8206 -113.456 -28.2978 14.3206 
-113.387 -28.2978 13.8206 -113.478 -28.2978 14.4372 -113.739 -26.2978 17.8206 
-113.351 -25.7978 18.8206 -113.135 -25.7978 19.3206 -113.549 -25.7978 18.3206 
-113.73 -25.7978 17.8206 -113.478 -25.7978 18.4895 -112.924 -25.7978 19.8206 
-112.978 -25.7978 19.6932 -112.713 -25.7978 20.3206 -112.478 -26.2978 20.6398 
-112.372 -26.2978 20.8206 -112.03 -26.7978 21.3206 -112.12 -26.2978 21.3206 
-111.909 -27.2978 21.3206 -111.978 -26.7978 21.414 -111.724 -26.7978 21.8206 
-111.587 -27.2978 21.8206 -110.978 -30.3505 21.0387 -110.918 -30.3342 21.133 
-110.819 -30.2978 21.3206 -110.739 -29.7978 21.8206 -111.053 -28.7978 21.8206 
-110.886 -29.2978 21.8206 -110.742 -28.7978 22.3206 -110.978 -28.7978 21.9313 
-111.478 -27.7978 21.7658 -111.256 -28.2978 21.8206 -111.478 -27.6693 21.8206 
-113.853 -26.2978 17.3206 -113.931 -26.2978 16.8206 -113.978 -26.2978 16.5632 
-113.978 -26.578 16.3206 -113.565 -27.7978 14.3206 -113.478 -28.2023 14.3206 
-113.714 -27.2978 14.3206 -113.864 -26.7978 14.8206 -113.977 -26.2978 15.8206 
-113.912 -26.2978 15.3206 -113.909 -26.2978 14.8206 -113.86 -26.7978 14.3206 
-113.116 -29.5864 13.5321 -113.138 -29.4813 13.3206 -113.186 -29.2978 13.3206 
-113.244 -28.7978 13.3206 -113.313 -28.2978 13.3206 -113.478 -27.9319 13.8206 
-113.861 -25.7978 17.3206 -113.405 -25.2978 18.8206 -113.478 -25.2978 18.618 
-113.184 -25.2978 19.3206 -113.578 -25.2978 18.3206 -113.72 -25.2978 17.8206 
-113.853 -25.2978 17.3206 -112.978 -25.4625 19.8206 -112.478 -25.4314 20.8206 
-112.478 -25.7978 20.7405 -112.779 -25.2978 20.3206 -112.148 -25.7978 21.3206 
-111.978 -26.2978 21.5364 -111.478 -26.7978 22.1265 -111.772 -26.2978 21.8206 
-111.478 -27.2978 21.9649 -110.806 -30.3086 21.3206 -110.756 -30.2978 21.4104 
-110.478 -29.3902 22.3206 -110.478 -29.7978 22.1421 -110.506 -30.2344 21.8206 
-110.51 -30.2363 21.8118 -110.512 -29.2978 22.3206 -110.478 -28.3635 22.8206 
-110.478 -28.7978 22.6858 -110.906 -28.2978 22.3206 -110.978 -28.2978 22.2142 
-111.047 -27.7978 22.3206 -110.978 -28.0553 22.3206 -111.171 -27.2978 22.3206 
-113.94 -25.7978 16.8206 -113.978 -25.7978 16.5861 -114.005 -26.2978 16.3206 
-114.016 -25.7978 16.3206 -113.516 -27.7978 13.8206 -113.675 -27.2978 13.8206 
-113.773 -26.7978 13.8206 -114.03 -25.7978 15.8206 -113.989 -25.7978 15.3206 
-113.929 -26.2978 14.3206 -113.978 -25.7978 14.8617 -113.945 -25.7978 14.3206 
-113.84 -26.2978 13.8206 -113.17 -29.4106 13.2078 -113.19 -29.2978 13.1314 
-113.204 -28.7978 12.8206 -113.202 -28.9471 12.8206 -113.234 -28.2978 12.8206 
-113.478 -27.758 13.3206 -113.324 -27.7978 12.8206 -113.478 -27.7978 13.4106 
-113.478 -24.7978 18.75 -113.246 -24.7978 19.3206 -113.605 -24.7978 18.3206 
-113.009 -25.2978 19.8206 -113.075 -24.7978 19.8206 -113.736 -24.7978 17.8206 
-113.957 -25.2978 16.8206 -113.864 -24.7978 17.3206 -113.978 -24.8111 16.8206 
-112.49 -25.2978 20.8206 -112.195 -25.2978 21.3206 -112.496 -24.7978 20.8206 
-112.82 -24.7978 20.3206 -112.978 -24.7978 20.03 -111.978 -25.7978 21.5754 
-111.309 -26.7978 22.3206 -111.478 -26.2978 22.1968 -111.815 -25.7978 21.8206 
-109.978 -29.6259 22.8206 -110.316 -29.7978 22.3206 -110.079 -29.2978 22.8206 
-110.478 -30.2276 21.8603 -110.142 -30.1469 22.2668 -110.574 -27.7978 22.8206 
-110.337 -28.7978 22.8206 -109.978 -28.7978 23.1105 -109.978 -28.2978 23.2646 
-110.478 -27.7978 22.9075 -110.978 -27.7978 22.4011 -110.978 -27.2978 22.5349 
-113.978 -25.2978 16.6688 -114.022 -25.2978 16.3206 -113.58 -27.2978 13.3206 
-113.602 -26.7978 13.3206 -113.674 -26.2978 13.3206 -114.058 -25.2978 15.8206 
-114.068 -25.2978 15.3206 -113.869 -25.7978 13.8206 -114.055 -25.2978 14.8206 
-113.965 -25.2978 14.3206 -113.86 -25.2978 13.8206 -113.761 -25.7978 13.3206 
-113.206 -28.7978 12.6854 -113.223 -28.5616 12.5568 -113.176 -28.2978 12.3567 
-113.169 -27.7978 12.3206 -113.171 -28.2531 12.3206 -113.478 -27.2978 13.0305 
-113.393 -27.2978 12.8206 -113.216 -27.2978 12.3206 -113.478 -24.2978 18.7483 
-113.268 -24.2978 19.3206 -113.622 -24.2978 18.3206 -113.047 -24.2978 19.8206 
-112.978 -24.2978 19.9568 -113.77 -24.2978 17.8206 -113.894 -24.2978 17.3206 
-113.978 -24.6418 16.8206 -114.051 -24.7978 16.3206 -111.978 -25.2978 21.6549 
-112.209 -24.7978 21.3206 -111.978 -24.7978 21.641 -112.776 -24.2978 20.3206 
-112.478 -24.2978 20.8173 -110.978 -26.2978 22.7199 -111.369 -26.2978 22.3206 
-110.978 -26.7978 22.6894 -111.478 -25.7978 22.2357 -111.478 -25.2978 22.2577 
-111.868 -25.2978 21.8206 -109.978 -29.7978 22.7469 -109.978 -29.2978 22.9104 
[...]
POINT_DATA 5186
SCALARS scalars float
LOOKUP_TABLE default
0 0 -0.0263671 2.77556e-17 -3.46945e-18 -0.539922 -0.149271 -0.611521 -2.77556e-17 
0 -0.445023 -0.837522 -0.0873784 -0.18291 -1.11013 -0.66042 -1.16677 -0.686161 
2.77556e-17 6.93889e-18 -0.369123 -0.952503 -1.04058 -1.06384 0 0 -0.201815 
0 -1.61171 -1.59765 -1.67906 -0.728747 -1.20666 -1.47396 0 -0.873931 
-2.77556e-17 0 -0.414138 -1.45442 -1.53654 0 -0.215186 -1.7149 -2.19139 
-2.17916 -1.72174 -2.24278 -1.22328 -0.744895 -0.579876 -0.216182 -1.25887 -1.73406 
-1.76138 -1.37075 -0.853538 0 -0.371868 -1.96053 -2.05391 -2.12602 -1.38778e-17 
-0.0822354 -2.30659 -2.19883 -2.75645 -2.73507 -2.79799 -0.738436 -0.207348 -0.702476 
-1.38778e-17 0 0 -1.43196 -1.24489 -2.29196 -1.76694 -1.87217 -1.35429 
-1.86066 -1.69788 -0.852742 0 2.77556e-17 -1.38778e-17 -0.340141 -2.18396 -2.5652 
-2.63619 -1.38778e-17 0 -2.70103 -2.28598 -3.16466 -3.20996 -3.29303 -3.1209 
-2.81057 0 -0.178622 -0.874276 -0.661307 -1.17972 -1.23683 -1.75246 -2.19066 
-2.76696 -2.80779 -2.3804 -1.36819 -1.61664 -1.87199 -2.39303 -1.89279 -0.850264 
-1.38778e-17 -0.290836 -0.135532 -0.803779 -2.46258 -3.06056 -3.13129 -3.25533 -3.69879 
-3.66262 -3.26133 -3.74575 -3.78611 -3.76171 -3.30797 -3.80526 -3.26626 0 
-0.110297 -0.124223 -0.645753 -1.15412 -1.10255 -0.575699 -1.72424 -2.17964 -2.73604 
-2.9637 -2.89338 -1.37742 -1.53909 -1.89616 -2.41363 -2.90818 -2.92445 -2.40798 
-1.31849 0 -0.161043 -0.0481076 -0.652132 0 -1.38778e-17 -1.38778e-17 -1.11873 
-3.55797 -4.18357 -4.23646 -3.64146 -4.12232 -4.14335 -4.28286 -4.26549 -4.30628 
-3.79799 -3.77166 -3.21627 -3.49375 0 1.38778e-17 0 -0.0571463 -0.30509 
0 0 -1.64584 -0.551776 -1.03288 -1.30222 -2.12994 -2.6996 -3.4675 
-3.40715 -1.59772 -1.81643 -2.27415 -2.9188 -3.4182 -3.43023 -3.35341 -2.64416 
6.93889e-18 0 0 -6.93889e-18 0 2.77556e-17 -0.429877 -0.839929 -1.55566 
-1.19361 -1.6277 -4.04582 -4.67292 -4.72575 -4.60259 -4.52822 -4.62629 -4.77299 
-4.76181 -4.80209 -4.28742 -4.26832 -3.71297 -4.21687 -3.20048 -3.70118 -3.64183 
-3.12484 0 0 -0.0155716 -0.49511 -1.53556 -1.00998 -1.47113 -1.5183 
-2.61402 -2.07338 -2.73853 -3.96096 -3.90824 -3.9076 -3.63957 -1.91895 -1.63225 
-2.24791 -2.96253 -3.93327 -3.65512 -3.2702 -2.57836 -2.77556e-17 0 -0.182645 
-0.480338 -0.792932 -1.43409 -4.44914 -5.16677 -5.13663 -5.21913 -5.09158 -5.01338 
-4.9379 -5.10793 -5.13174 -4.77467 -5.30157 -4.70436 -4.18291 -3.58187 -4.13283 
-3.09837 -1.73472e-18 0 -0.827001 -0.432066 -6.93889e-18 6.93889e-18 -0.924773 -1.83907 
-1.41924 -1.99452 -2.00965 -2.51153 -2.24614 -3.02399 -4.40265 -4.40077 -3.91967 
-4.41333 -1.52117 -1.85294 -2.18105 -4.36555 -3.97364 -2.90125 -3.62693 -3.22629 
-2.5165 0 0 -0.127649 0 -0.384508 -1.14803 -0.704393 -1.19382 
-5.64817 -5.71537 -5.58167 -5.27345 -5.77048 -5.50338 -4.89914 -5.43064 -5.38371 
-5.26413 -5.19895 -5.75081 -5.7966 -5.78658 -4.66358 -3.54146 -4.06246 -4.62459 
-0.496997 -0.392918 -0.832815 2.77556e-17 2.77556e-17 -2.40299 -1.38663 -1.30286 -1.7927 
-2.38138 -2.49524 -2.97878 -4.89637 -4.90753 -1.45072 -1.77254 -2.12571 -4.6767 
-4.30479 -2.85913 -3.93905 -3.5688 -3.21003 -2.50023 0 0 2.08167e-17 
-0.30443 3.46945e-18 -1.20984 -1.03695 -0.65001 -6.13475 -6.2064 -6.07142 -6.25363 
-6.26356 -5.99605 -5.92659 -5.55152 -5.36779 -5.14683 -5.68631 -5.63057 -6.27752 
-6.23381 -3.94643 -4.03664 -3.46538 -4.54407 -5.02742 -5.12054 -0.331974 -0.809742 
-0.588731 -0.226457 0 -2.91598 -2.86665 -1.25036 -1.69297 -2.27943 -2.18184 
-2.7831 -1.49916 -1.69659 -1.64761 -2.1512 -4.99834 -4.63862 -4.28406 -3.80715 
-3.57697 -2.87022 -2.54227 1.38778e-17 2.77556e-17 -0.312261 1.38778e-17 -1.38116 -1.02115 
-0.684932 -6.60485 -6.62954 -6.69169 -6.55874 -6.48626 -6.74061 -6.74812 -6.76344 
-6.41943 -5.88936 -6.37148 -5.68412 -5.32682 -6.16172 -6.11711 -5.59689 -6.06783 
-6.72256 -3.92416 -4.40664 -4.42897 -4.52415 -3.43432 -5.40143 -5.49669 -4.91482 
-5.51221 0 0 2.77556e-17 -0.713638 -0.19953 -0.12628 -0.622423 -1.38778e-17 
0 0 -3.35379 -3.29736 -1.20156 -1.63665 -2.15636 -2.76261 -2.66908 
-3.25249 -1.82169 -1.40979 -1.94632 -4.9793 -4.63913 -3.91577 -4.28688 -3.95928 
-3.25116 -3.6523 -2.94638 -2.23651 -2.65008 -2.77556e-17 -1.38778e-17 -0.377593 1.38778e-17 
-1.09175 -0.482393 -7.07959 -7.11585 -7.17755 -7.04659 -6.97386 -6.90989 -7.22771 
-7.25229 -7.21296 -6.70303 -5.87571 -6.00887 -6.34982 -5.7521 -5.65878 -5.32521 
-6.63802 -6.60654 -6.54368 -5.99946 -6.48949 -3.84002 -4.89725 -4.32593 -4.81294 
-5.37841 -5.89005 -5.96759 -0.825672 -2.77556e-17 0 0 0 -0.0650231 
-0.535657 -3.7989 -3.74028 -1.12172 -2.09182 -1.59897 -2.58381 -3.0737 -3.18585 
-3.66312 -1.50467 -2.16562 -1.92814 -5.0003 -4.3509 -4.66895 -3.35685 -4.05388 
-3.06153 -2.55392 -2.99965 1.38778e-17 5.55112e-17 -0.119495 -0.78569 -1.20595 -0.702354 
-7.54739 -7.605 -7.66954 -7.5337 -7.46132 -7.39349 -7.04416 -7.71824 -7.74324 
-7.70543 -7.68331 -7.12076 -6.70311 -6.00788 -5.72994 -6.37115 -5.66074 -7.09725 
-7.02714 -6.44222 -6.93316 -6.97971 -4.29549 -4.78809 -5.30103 -5.27413 -5.85513 
-6.34004 -6.38058 -1.02414 -6.93889e-18 0 -0.043155 -0.466741 -0.98673 -0.21862 
-4.22914 -4.16152 -2.01044 -2.52286 -1.51463 -1.96441 -3.01245 -3.50671 -3.5646 
-4.14119 -1.62566 -2.34747 -2.04991 -5.37486 -5.34345 -4.75116 -5.05364 -3.76939 
-4.46029 -3.42709 -2.76006 -3.18061 1.38778e-17 0 -0.486064 -0.207383 -1.38778e-17 
-1.04266 -7.77783 -8.09457 -8.15904 -7.8455 -7.95183 -7.73629 -7.39566 -7.06642 
-8.2002 -8.23116 -8.16244 -7.60132 -7.98241 -6.74365 -5.68078 -6.05144 -6.43168 
-5.67803 -7.51439 -7.47153 -6.87163 -7.36483 -7.41672 -4.71979 -5.79073 -5.75579 
-5.21015 -6.28211 -6.82908 -6.77466 -1.49594 0 0 -0.944824 -0.452652 
-1.43681 -0.385578 0 1.38778e-17 0 -4.66975 -4.63373 -2.50133 -1.92962 
-2.99031 -3.48189 -3.97553 -4.0211 -4.05778 -1.44315 -1.8892 -2.47271 -5.7442 
-5.44479 -5.15563 -4.18263 -4.86859 -3.86253 -3.60555 -2.90082 -0.92193 -0.650506 
1.38778e-17 0 -0.378802 2.77556e-17 -8.00654 -8.02289 -8.58346 -8.51429 -8.20329 
-8.64621 -8.67327 -8.43239 -8.08924 -8.46388 -7.75752 -7.43412 -7.11982 -8.64248 
-8.69651 -8.71577 -8.69589 -8.08483 -8.58331 -7.99127 -6.13118 -6.81387 -7.96759 
-7.89113 -7.31078 -7.86057 -5.16464 -5.70037 -6.23882 -6.71984 -7.26837 -0.864757 
-1.77973 -1.3557 -0.390002 -0.286247 -0.816959 0 -1.38778e-17 -5.12461 -4.55015 
-2.90891 -2.41982 -2.34273 -3.40082 -4.46876 -3.89383 -4.52627 -1.35301 -1.77491 
-2.31192 -5.84075 -5.5572 -4.58544 -4.3963 -4.06419 -5.27092 -3.31771 -4.01858 
-3.61704 -2.72719 -3.23891 -1.08112 -0.80684 0 0 -0.26733 -9.07306 
-9.00567 -9.05295 -9.18273 -8.59045 -8.45109 -8.12508 -8.68631 -7.80739 -7.50227 
-9.11738 -9.08722 -9.15749 -8.55948 -9.03065 -8.42625 -6.51969 -7.20538 -8.36851 
-7.789 -5.63988 -6.19221 -6.68554 -7.20504 -7.76449 -1.33573 -1.75882 -0.780778 
-0.259121 -2.77556e-17 -1.27072 -5.53441 -5.04241 -5.61544 -5.02383 -2.83844 -3.34277 
-2.24765 -3.84638 -4.96113 -4.38671 -4.34701 -1.51394 -2.20511 -1.95007 -6.2356 
-5.95536 -4.94654 -4.30446 -4.71356 -5.67263 -5.54984 -5.1301 -3.72453 -4.42217 
-4.26006 -3.43981 -2.63326 -3.03446 -1.09349 -0.55744 -2.77556e-17 0 -0.438295 
-2.77556e-17 -9.2041 -8.97792 -9.12888 -9.26764 -8.78749 -8.78503 -9.67302 -9.43824 
-9.69394 -9.19607 -8.67077 -8.51907 -8.47741 -8.19433 -7.89686 -7.60776 -9.67652 
-9.59895 -9.50789 -8.4668 -8.9705 -9.47441 -6.91561 -8.26332 -8.56477 -6.12284 
-6.60903 -7.17983 -6.93945 -7.68292 -7.79754 -8.17587 -1.17814 -1.66508 -0.688799 
0 -0.185911 -1.38778e-17 -5.50813 -6.02732 -6.10819 -3.3187 -2.73808 -3.8103 
-2.15432 -4.30113 -5.37076 -4.87877 -5.45348 -4.83767 -1.23693 -1.65535 -2.36703 
-1.98211 -6.63448 -6.35498 -6.25224 -5.80533 -5.12161 -5.40221 -5.81067 -4.1334 
-4.80655 -4.53228 -3.15094 -2.76199 -3.85074 -3.65668 -0.976393 -2.77556e-17 -0.404976 
-0.802932 -8.77873 -8.54845 -8.34403 -9.02245 -8.65088 -8.19432 -9.30835 -9.44633 
-9.63429 -8.03201 -8.11639 -7.83376 -7.66102 -7.32488 -7.51862 -9.99589 -9.99134 
-9.97653 -8.9361 -9.41256 -8.73532 -8.76472 -8.84223 -8.85976 -6.52168 -7.09651 
-7.59404 -7.0171 -8.15205 -8.0945 -8.67852 -0.595549 -1.08484 -1.32929 -1.58425 
-2.09596 -0.0962471 6.93889e-18 -5.97514 -3.22928 -2.64322 -3.71829 -4.20627 -2.60107 
-4.79171 -4.69456 -5.31442 -5.8637 -5.94676 -1.40194 -2.09267 -2.63373 -1.7851 
-7.04637 -6.61067 -6.07825 -6.49131 -5.52775 -5.32088 -6.22095 -5.22714 -4.19372 
-4.93376 -4.3724 -2.82223 -3.5483 -3.93375 -1.21542 0 5.55112e-17 -0.455359 
-0.723958 -8.34042 -8.39416 -8.10153 -7.89125 -7.8132 -8.60501 -8.91288 -9.00453 
-9.2662 -7.57233 -7.37059 -7.19219 -7.04612 -7.40789 -6.94037 -9.64077 -9.56587 
-10.1579 -9.88955 -10.1158 -9.36539 -9.87218 -9.20254 -9.27137 -9.30984 -6.73417 
-6.45279 -7.55725 -7.43479 -6.93676 -7.51429 -8.61766 -8.59729 -8.0179 -8.05435 
-8.51697 -9.18471 -8.83883 0 -2.08167e-17 -0.515234 -1.06131 -0.975755 -1.44987 
-2.05376 -2.53473 6.93889e-18 0 0 -3.12922 -3.61377 -4.09804 -4.58208 
-3.08469 -3.01285 -5.28232 -5.18254 -5.06566 -5.77692 -6.3574 -1.67362 -2.46529 
-2.10013 -6.76777 -7.3251 -7.18764 -6.91197 -5.93452 -5.81309 -5.6374 -6.63579 
-4.7243 -5.34177 -5.22146 -4.63397 -3.12097 -2.71861 -3.20669 -3.72294 -4.30883 
-4.25289 -1.08672 -1.43952 2.77556e-17 -0.493939 -0.463302 0 -0.587985 -7.90233 
-7.99924 -7.65107 -7.74147 -7.42998 -7.35173 -7.24847 -8.18539 -8.50878 -8.60755 
-9.12527 -8.88977 -7.10844 -6.92043 -6.73462 -6.57957 -6.46815 -6.86269 -6.38658 
-9.31327 -10.0693 -9.65439 -10.3808 -9.77639 -10.2913 -10.3614 -9.41966 -6.85196 
-7.38072 -7.9348 -8.48353 -9.0218 -9.10391 -9.08258 -1.38778e-17 -0.348252 -0.84073 
-1.92667 -1.31413 -2.40436 -2.87653 -3.55557 -4.0053 -4.28311 -4.44861 -4.92486 
-3.49237 -3.34898 -5.67063 -5.54861 -5.39715 -6.24024 -6.26559 -6.75779 -1.74015 
-2.50236 -1.88697 -6.99623 -6.75757 -6.77854 -6.77953 -6.29638 -6.04989 -6.7756 
-5.03291 -5.70899 -5.43186 -2.86373 -3.59023 -2.99697 -3.9681 -4.66588 -0.801524 
-1.23623 2.77556e-17 -2.77556e-17 -0.75219 -0.46682 -2.77556e-17 -7.45504 -7.64765 -7.19518 
-7.10285 -6.77012 -7.75875 -8.11407 -8.22063 -8.72785 -8.51591 -6.63043 -6.46484 
-6.27063 -6.10644 -5.98306 -5.87977 -6.79482 -6.30543 -5.78862 -8.97766 -9.23952 
-9.77436 -10.0958 -9.6935 -10.2504 -10.3601 -10.5518 -9.67255 -9.61012 -7.25251 
-7.34971 -7.63005 -8.34853 -7.85018 -8.43596 -8.94466 -9.55268 -9.5301 -8.98036 
-9.44971 -1.73472e-17 -1.38778e-17 -0.20107 -0.689779 -1.78738 -1.1682 -2.25478 -2.71609 
-3.175 -3.97102 -3.81935 -4.28445 -4.85191 -3.6252 -6.15864 -6.03021 -5.85921 
-5.22974 -6.70408 -1.42957 -2.26595 -2.79855 -2.14335 -1.63514 -6.55573 -6.25289 
-6.27231 -6.33899 -6.6865 -6.47719 -6.14394 -4.71029 -5.18388 -5.83834 -5.65178 
-3.33173 -3.82971 -3.22864 -2.66685 -2.5034 -4.36149 -4.30523 -1.10613 2.77556e-17 
-0.382145 -0.64276 -7.00561 -7.29891 -6.95887 -6.72837 -6.65596 -6.27984 -6.4914 
-7.72444 -8.13456 -7.84695 -8.36745 -6.11748 -5.9774 -5.78319 -5.55982 -5.47639 
-5.35672 -5.27043 -6.25246 -5.75304 -5.24405 -8.63691 -8.8558 -9.49777 -9.68724 
-10.2055 -10.7264 -10.1073 -10.831 -10.6132 -10.1447 -10.1196 -9.83013 -7.62637 
-7.05578 -7.74964 -7.82647 -8.28632 -8.85001 -9.38707 -9.95952 -9.55978 -1.38778e-17 
0 -0.078264 -0.513344 -1.62679 -0.992888 -2.07726 -2.51961 -2.95193 -3.36894 
-4.05798 -4.73954 -4.45631 -3.75727 -6.64668 -6.51041 -6.22116 -5.28059 -5.51515 
-5.85472 -5.15854 -1.33309 -1.84907 -2.39629 -1.7896 -1.48502 -1.28036 -1.05708 
-5.77825 -5.84843 -6.41102 -6.0676 -6.43885 -6.53744 -6.50266 -5.11049 -5.50959 
-6.27478 -6.03451 -3.61009 -3.99905 -2.96386 -3.45957 -2.8651 -2.36004 -2.15466 
-4.65964 -0.796726 0 2.77556e-17 2.77556e-17 -0.734524 -0.355086 0 -6.54346 
-6.40955 -6.57546 -7.07803 -6.0015 -5.77523 -5.71593 -5.84815 -7.33079 -8.02872 
-7.75243 -7.51168 -5.8389 -5.27722 -5.10337 -5.35504 -5.20016 -5.0165 -5.2591 
-4.71571 -4.71155 -8.29597 -8.49997 -9.20844 -9.31592 -10.0025 -10.4563 -10.6324 
-10.7516 -11.1 -10.2661 -10.0384 -10.5512 -10.0201 -7.35995 -7.33765 -7.98624 
-7.1194 -6.93101 -8.24486 -8.61377 -9.05347 -8.71153 -9.35762 -10.5233 -9.79831 
-10.1406 -9.61596 0 0 0 0 0 1.38778e-17 -0.314011 
-0.772636 -1.42762 -1.19832 -1.85864 -2.28156 -2.67907 -3.05998 -3.41789 -4.11388 
-4.81262 -4.45277 -3.75574 -6.55961 -6.19016 -5.34032 -5.31086 -5.48864 -5.82308 
-2.02328 -1.41844 -0.928853 -1.14034 -0.942424 -0.705067 -5.30261 -5.95372 -5.32859 
-5.43009 -6.02871 -6.06306 -4.75625 -5.17095 -5.93386 -5.39483 -6.07374 -6.14093 
-3.93106 -4.38829 -3.24156 -2.59876 -3.12517 -2.50598 -2.24179 -1.9633 -2.77556e-17 
1.38778e-17 0 -6.22287 -6.92343 -6.47789 -6.23984 -5.74089 -5.4851 -5.63731 
-5.58234 -5.06904 -5.45729 -6.87695 -6.68512 -7.92507 -7.71813 -7.35557 -7.24607 
-4.92862 -4.75761 -4.95425 -4.48785 -4.41356 -4.82505 -4.73908 -4.76503 -4.15937 
-4.34054 -4.1928 -8.20463 -8.92022 -9.78507 -9.44802 -11.0913 -10.4947 -10.7463 
-9.55674 -9.95343 -11.065 -10.8947 -7.34685 -7.60564 -6.89526 -7.94386 -8.3227 
-9.01088 -8.66468 -9.39784 -10.6381 -9.66834 -9.74487 -10.49 -10.0969 -1.38778e-17 
0 -0.129762 -0.515671 -0.925082 -1.60457 -1.31156 -1.99471 -2.3635 -2.71793 
-3.05878 -5.15288 -4.78755 -4.08582 -4.53156 -4.33243 -3.38977 -6.52558 -6.15963 
-4.94 -5.12171 -5.45736 -1.78211 -1.05809 -1.68449 -0.52345 -0.346448 -0.124372 
6.93889e-18 -5.175 -5.48789 -4.8375 -4.95343 -5.26146 -5.50837 -5.75498 -4.51133 
-4.79885 -5.58044 -5.97441 -5.2054 -6.08043 -3.59414 -3.78604 -4.00669 -2.86465 
-3.01746 -2.13832 -2.80587 -1.89175 -1.48734 -6.06984 -6.13947 -5.95324 -6.56203 
-5.41589 -5.55814 -5.37547 -5.26184 -4.97884 -4.73988 -4.55579 -4.50157 -4.57079 
-7.06969 -7.44512 -7.94352 -4.62431 -4.27909 -4.2654 -4.05524 -4.18863 -4.22196 
-4.30606 -4.18127 -3.6308 -3.62507 -3.65182 -3.9829 -8.59112 -8.20816 -9.13662 
-11.3162 -10.2188 -10.4341 -11.2018 -10.8899 -9.27003 -9.65662 -11.0016 -7.31497 
-7.23167 -6.86371 -7.91573 -7.57117 -8.286 -8.98586 -8.63453 -9.35866 -8.51955 
-10.6655 -9.71489 -10.3857 -10.0744 -1.38778e-17 0 0 -4.16334e-17 -0.214872 
-0.615389 -0.984454 -1.66958 -2.01917 -2.36458 -2.69832 -3.72036 -3.858 -4.41836 
-4.75624 -4.05446 -3.02753 -6.50054 -5.79716 -5.09574 -0.668753 -1.40597 -1.34987 
0 -2.77556e-17 -0.11008 0 0 0 -4.37298 -4.98318 -4.4036 
-5.01134 -5.55936 -5.56895 -5.62801 -4.48779 -5.51528 -5.71216 -5.75872 -5.61606 
-5.86225 -4.89742 -5.65073 -3.29361 -3.76492 -4.38349 -3.22096 -2.97823 -2.45006 
-1.72372 -1.86204 -2.12863 -1.04675 -5.94419 -6.41126 -6.49702 -5.24296 -5.30184 
-5.48758 -4.75216 -4.47586 -4.40166 -4.47058 -4.02068 -4.40782 -3.85813 -4.24457 
-6.93272 -6.76463 -7.09336 -7.26238 -7.7331 -4.06004 -3.90697 -3.56471 -3.39944 
-3.78603 -3.76555 -4.13168 -3.72181 -3.42331 -3.20875 -3.66935 -3.07403 -3.67248 
-3.13532 -8.41553 -8.22642 -8.9156 -9.9546 -10.1379 -10.5721 -10.981 -9.40546 
-10.6845 -10.7847 -10.444 -7.20583 -6.84651 -7.90919 -7.55368 -8.26664 -8.4696 
-8.98834 -8.62425 -9.345 -8.3901 -10.5817 -9.60684 -10.0746 -9.79545 -9.71268 
-9.46764 0 -0.0329823 -0.064729 -0.267501 -0.645414 -1.32809 -1.66758 -2.01025 
-2.3422 -3.36074 -3.51851 -4.39679 -3.70109 -4.04834 -2.67301 -6.14198 -6.38632 
-5.43909 -4.74206 -5.09023 -0.932669 -0.396132 3.46945e-18 -0.201926 1.38778e-17 -4.57394 
-4.47406 -3.92208 -5.05931 -4.53305 -4.85309 -5.07688 -4.7814 -5.2835 -5.15466 
-5.18046 -5.28403 -5.34389 -5.90154 -5.43804 -5.19468 -3.55524 -4.20944 -3.77295 
-3.46886 -2.76463 -2.89255 -1.60135 -1.98076 -1.33967 -2.65934 -0.981077 -5.77948 
-6.26755 -5.95085 -6.50239 -5.08227 -5.21148 -5.09462 -5.67038 -4.41212 -4.38745 
-4.41422 -4.22207 -3.9597 -3.6997 -3.48369 -3.48396 -3.51871 -3.73751 -3.49454 
-6.59731 -6.14424 -7.09825 -7.31076 -7.7087 -3.77103 -3.24602 -3.28074 -3.09624 
-2.9337 -3.85405 -3.50932 -3.87967 -3.08887 -3.06377 -3.10076 -2.49753 -2.5303 
-2.92357 -2.75253 -8.49834 -7.58551 -8.04947 -8.71835 -9.69246 -9.85635 -10.2832 
-10.6077 -10.5271 -9.16085 -10.2253 -9.87884 -7.19921 -6.49339 -7.71054 -7.56087 
-8.09993 -9.36362 -8.64309 -8.27274 -9.5293 -9.21655 -9.11987 -8.85855 3.46945e-18 
6.93889e-18 0 -6.93889e-18 6.93889e-18 -0.107605 -0.270185 -0.978476 -0.624665 -1.31391 
-1.64344 -1.97332 -3.00941 -3.141 -3.35409 -4.39749 -3.7062 -2.31586 -2.79833 
-2.5047 -5.78966 -5.97919 -6.14799 -5.44721 -4.75299 -5.11663 -0.2858 -1.38778e-17 
-2.77556e-17 -3.97578 -3.51123 -3.64262 -4.55821 -4.0061 -4.95009 -4.58714 -4.96323 
-5.63306 -4.93193 -5.6751 -5.5439 -4.9775 -5.01422 -5.341 -3.88507 -3.57034 
-3.14236 -3.03332 -2.83416 -2.36093 -1.10681 -1.84666 -2.06418 -1.1852 -0.78028 
-4.60619 -5.01286 -5.60027 -5.49048 -4.26022 -4.13934 -3.77227 -4.39733 -3.54966 
-3.49593 -3.57843 -2.93495 -3.29387 -3.18193 -6.571 -6.11429 -6.03504 -7.02172 
-6.47439 -3.03685 -2.85219 -2.68799 -3.29853 -3.2608 -3.20085 -2.51057 -2.17861 
-2.60309 -1.97355 -2.04203 -1.95653 -2.5625 -8.53246 -7.46345 -7.66991 -8.01235 
-9.43712 -9.60625 -10.3904 -10.0422 -10.2482 -10.2972 -8.94712 -9.11524 -10.0383 
-9.68072 -9.32924 -6.85207 -6.5133 -7.21909 -7.43489 -7.93001 -9.02481 -8.30721 
-8.97629 -8.74024 -8.46806 -8.59495 -8.2582 1.38778e-17 -6.93889e-18 0 0 
-0.473404 -0.965215 -1.30251 -1.79259 -2.23032 -3.00822 -4.06043 -3.36302 -2.65989 
-1.95554 -2.30407 -5.62936 -5.81146 -6.18541 -4.4201 -4.83178 -5.33363 1.38778e-17 
0 -0.156996 0 -0.379411 -3.34831 -3.36348 -3.44302 -3.46748 -3.52058 
-3.86945 -4.63336 -4.06186 -4.66239 -4.2487 -4.69191 -4.8039 -5.62258 -5.1727 
-4.7899 -5.04658 -5.69363 -5.55022 -3.99061 -3.33268 -3.53446 -2.17087 -2.25351 
-2.53788 -3.26203 -2.97718 -1.56488 -1.24147 -1.0474 -0.482139 -4.54329 -4.38935 
-4.99333 -5.49575 -3.66933 -3.6247 -4.10892 -3.45686 -3.1774 -3.31659 -2.98824 
-2.56149 -2.57757 -2.7471 -2.59448 -2.63094 -2.51074 -6.18581 -6.00251 -6.87335 
-6.98068 -5.96203 -5.93745 -6.40775 -2.32481 -2.15716 -2.01608 -3.02007 -2.72171 
-1.93585 -1.93687 -2.20746 -1.81743 -1.50653 -1.56113 -1.3863 -1.43829 -7.91001 
-8.36273 -8.84245 -7.39528 -6.89329 -7.80392 -9.39925 -9.84014 -10.1049 -10.141 
-10.037 -9.2327 -9.88978 -9.52555 -9.14568 -8.76278 -6.88719 -6.56674 -7.1963 
-7.59466 -7.97886 -8.67085 -8.33019 -8.37313 -8.37301 -8.0719 -7.92744 -8.18988 
-7.8015 -1.38778e-17 -0.246983 -0.771378 -0.906688 -1.60727 -1.24758 -2.65765 -3.72315 
-3.02276 -1.59825 -1.94824 -5.48726 -5.86798 -4.11644 -4.47166 -5.17077 0 
0 -2.77556e-17 -2.76959 -2.75807 -2.88156 -2.99091 -3.55173 -3.02283 -4.08151 
-3.91982 -4.17304 -4.21749 -4.62368 -4.33368 -5.49236 -5.40299 -4.51627 -4.72973 
-4.78489 -4.44889 -5.41188 -4.76217 -5.6503 -3.65656 -4.38751 -4.10903 -3.4203 
-2.06611 -2.40244 -1.79992 -2.60626 -2.73225 -3.20121 -1.31464 -0.775476 -0.454409 
-0.529298 2.77556e-17 -5.55112e-17 -4.38873 -4.57395 -5.48248 -4.93412 -3.29563 -3.6136 
-3.72271 -4.35355 -4.32041 -2.69021 -2.90048 -2.7856 -2.69365 -2.56604 -2.42667 
-2.22905 -1.94215 -2.21664 -2.49345 -2.31933 -2.15823 -5.44922 -5.7084 -5.43629 
-5.89088 -5.96829 -6.36501 -1.97495 -1.7902 -2.12963 -2.19512 -1.54357 -1.37447 
-0.951528 -1.07527 -1.63655 -1.0983 -1.54964 -1.05403 -0.894507 -0.852968 -8.69094 
-8.22234 -8.79657 -7.3567 -7.20514 -6.84532 -7.66711 -7.30522 -7.76571 -9.66693 
-10.0235 -9.77548 -9.63086 -8.66312 -9.11772 -9.39633 -8.99719 -8.60522 -8.19886 
-6.85308 -6.41238 -6.25609 -6.95589 -7.26937 -7.66119 -7.99537 -8.004 -7.97199 
-7.69661 -7.57863 -7.43249 -7.58594 0 0 0 -2.77556e-17 -0.576219 
-0.163754 -0.520455 -0.877147 -2.3413 -2.80027 -3.42119 -3.34367 -1.23846 -1.40844 
-1.69919 -6.07945 -5.55925 -3.77104 -4.86365 -4.16469 -2.60657 -2.25848 -2.31348 
-2.4016 -3.64414 -3.1298 -2.54538 -3.20438 -3.06512 -2.60813 -3.69334 -3.88398 
-4.96768 -4.05484 -4.59481 -4.14203 -5.14533 -4.51687 -5.5269 -5.22324 -5.70924 
-5.3645 -4.01706 -3.85809 -3.65594 -2.27518 -1.31759 -1.38787 -1.59161 -2.0718 
-2.67868 -2.82199 -3.01956 -3.47341 -1.07516 -0.560155 -1.38778e-17 -0.154861 -2.77556e-17 
-1.38778e-17 -4.91614 -5.10377 -2.93939 -2.77699 -2.81249 -3.37637 -3.60781 -4.18623 
-4.697 -4.30306 -2.54652 -2.52994 -2.1563 -1.81046 -1.49227 -1.71186 -1.50299 