# vtk DataFile Version 4.2
3D Slicer output. SPACE=LPS
ASCII
DATASET POLYDATA
POINTS 4931 float
-67.8977 -1.87965 17.3163 -67.8826 -1.87965 16.8163 -67.7948 -2.37965 17.3163 
-67.9243 -1.7634 17.3163 -67.9006 -1.87965 17.8163 -67.8042 -2.37965 17.8163 
-67.7764 -2.37965 16.8163 -67.9243 -1.63675 16.8163 -67.8109 -1.87965 16.3163 
-67.6956 -2.87965 17.3163 -67.6906 -2.87965 17.8163 -67.9243 -1.73853 17.8163 
-67.9975 -1.37965 17.3163 -67.9024 -1.87965 18.3163 -67.8051 -2.37965 18.3163 
-67.7207 -2.37965 16.3163 -67.6499 -2.87965 16.8163 -67.9565 -1.37965 16.8163 
-67.9243 -1.37965 16.6102 -67.7159 -1.87965 15.8163 -67.8725 -1.37965 16.3163 
-67.7946 -1.37965 15.8163 -67.5766 -3.37965 17.3163 -67.6649 -2.87965 18.3163 
-67.5688 -3.37965 17.8163 -67.9243 -1.68999 18.3163 -67.973 -1.37965 17.8163 
-68.025 -0.879651 17.3163 -67.9685 -0.879651 16.8163 -68.0061 -0.879651 17.8163 
-67.8585 -1.87965 18.8163 -67.7616 -2.37965 18.8163 -67.6268 -2.37965 15.8163 
-67.5975 -2.87965 16.3163 -67.4998 -3.37965 16.8163 -67.9243 -0.879651 16.5313 
-67.6101 -1.87965 15.3163 -67.687 -1.37965 15.3163 -67.8896 -0.879651 16.3163 
-67.8092 -0.879651 15.8163 -67.6982 -0.879651 15.3163 -67.4243 -3.6626 16.8163 
-67.4243 -3.87965 17.2201 -67.4333 -3.87965 17.3163 -67.5225 -3.37965 18.3163 
-67.6204 -2.87965 18.8163 -67.4243 -3.73879 18.3163 -67.4211 -3.87965 17.8163 
-67.9508 -1.37965 18.3163 -67.9243 -1.37965 18.7858 -67.9766 -0.879651 18.3163 
-67.9754 -0.379651 17.3163 -67.9466 -0.379651 16.8163 -67.9243 -0.379651 16.5976 
-67.9886 -0.379651 17.8163 -67.7864 -1.87965 19.3163 -67.8512 -1.37965 19.3163 
-67.6871 -2.37965 19.3163 -67.5001 -2.37965 15.3163 -67.4243 -2.87965 15.366 
-67.5289 -2.87965 15.8163 -67.4243 -3.37965 15.9589 -67.4596 -3.37965 16.3163 
-67.4243 -3.50247 16.3163 -67.8878 -0.379651 16.3163 -67.4871 -1.87965 14.8163 
-67.4243 -2.23359 14.8163 -67.4243 -2.37965 14.9587 -67.5409 -1.37965 14.8163 
-67.5517 -0.879651 14.8163 -67.7881 -0.379651 15.8163 -67.6837 -0.379651 15.3163 
-67.5764 -0.379651 14.8163 -67.3269 -3.87965 16.3163 -67.3698 -3.87965 16.8163 
-67.2583 -4.37965 17.3163 -67.2313 -4.37965 16.8163 -67.2668 -4.37965 17.8163 
-67.4686 -3.37965 18.8163 -67.4243 -3.55466 18.8163 -67.5488 -2.87965 19.3163 
-67.4243 -3.37965 19.124 -67.3897 -3.87965 18.3163 -67.3534 -3.87965 18.8163 
-67.9243 -1.31836 18.8163 -67.951 -0.379651 18.3163 -67.9257 -0.879651 18.8163 
-67.9243 -0.863177 18.8163 -67.9243 -0.379651 18.5131 -67.9615 0.120348 17.3163 
-67.9738 0.120348 17.8163 -67.938 0.120348 16.8163 -67.9243 0.120348 16.6372 
-67.8897 0.120348 16.3163 -67.7066 -1.87965 19.8163 -67.74 -1.37965 19.8163 
-67.8213 -0.879651 19.3163 -67.6271 -2.37965 19.8163 -67.3187 -2.87965 14.8163 
-67.3191 -3.37965 15.3163 -67.4243 -3.31227 15.8163 -67.2905 -3.87965 15.8163 
-67.4243 -1.87965 14.5502 -67.3977 -2.37965 14.8163 -67.3026 -2.37965 14.3163 
-67.4243 -1.37965 14.4275 -67.4243 -0.879651 14.4298 -67.7857 0.120348 15.8163 
-67.6628 0.120348 15.3163 -67.5825 0.120348 14.8163 -67.4243 -0.362419 14.3163 
-67.2101 -4.37965 16.3163 -67.0933 -4.87965 17.3163 -67.1136 -4.87965 17.8163 
-67.0824 -4.87965 16.8163 -67.2756 -4.37965 18.3163 -67.1212 -4.87965 18.3163 
-67.2832 -3.87965 19.3163 -67.4243 -3.27898 19.3163 -67.4822 -2.87965 19.8163 
-67.4243 -3.05578 19.8163 -67.3945 -3.37965 19.3163 -67.2458 -4.37965 18.8163 
-67.936 0.120348 18.3163 -67.8735 -0.379651 18.8163 -67.8602 0.120348 18.8163 
-67.9953 0.620348 17.3163 -67.9577 0.620348 16.8163 -67.9785 0.620348 18.3163 
-68.0007 0.620348 17.8163 -67.9243 0.620348 16.5406 -67.8899 0.620348 16.3163 
-67.7924 0.620348 15.8163 -67.6038 -1.87965 20.3163 -67.6266 -1.37965 20.3163 
-67.7247 -0.879651 19.8163 -67.7756 -0.379651 19.3163 -67.5469 -2.37965 20.3163 
-67.4243 -2.87965 20.2574 -67.2554 -3.37965 14.8163 -67.2442 -2.87965 14.3163 
-67.2342 -3.87965 15.3163 -67.1776 -4.37965 15.8163 -67.3706 -1.87965 14.3163 
-67.1931 -2.37965 13.8163 -67.215 -1.87965 13.8163 -67.3914 -1.37965 14.3163 
-67.3873 -0.879651 14.3163 -67.6804 0.620348 15.3163 -67.5678 0.620348 14.8163 
-67.4243 0.120348 14.2426 -67.4243 0.598211 14.3163 -67.2333 -0.379651 13.8163 
-67.0376 -4.87965 16.3163 -66.9476 -5.37965 17.3163 -66.9243 -5.44398 17.8163 
-66.9243 -5.22384 16.3163 -66.9243 -5.37965 16.7693 -66.9283 -5.37965 16.8163 
-66.9257 -5.37965 18.3163 -67.0875 -4.87965 18.8163 -66.9243 -5.29448 18.8163 
-67.1627 -4.37965 19.3163 -67.1834 -3.87965 19.8163 -67.3166 -3.37965 19.8163 
-67.2302 -3.37965 20.3163 -67.9243 0.620348 18.7245 -67.782 0.120348 19.3163 
-67.8302 0.620348 19.3163 -68.0311 1.12035 17.3163 -67.9667 1.12035 16.8163 
-68.0239 1.12035 18.3163 -67.9243 0.781212 18.8163 -68.0503 1.12035 17.8163 
-67.9243 1.12035 16.5387 -67.8872 1.12035 16.3163 -67.7896 1.12035 15.8163 
-67.6836 1.12035 15.3163 -67.4684 -1.87965 20.8163 -67.4701 -1.37965 20.8163 
-67.6076 -0.879651 20.3163 -67.6954 -0.379651 19.8163 -67.7107 0.120348 19.8163 
-67.4243 -2.85205 20.3163 -67.4243 -2.37228 20.8163 -67.167 -3.87965 14.8163 
-67.183 -3.37965 14.3163 -67.1716 -2.87965 13.8163 -67.11 -4.37965 15.3163 
-66.9939 -4.87965 15.8163 -67.2199 -1.37965 13.8163 -67.0954 -2.37965 13.3163 
-67.0742 -1.87965 13.3163 -67.2234 -0.879651 13.8163 -67.5584 1.12035 14.8163 
-67.4243 1.12035 14.4764 -67.2296 0.120348 13.8163 -67.1966 0.620348 13.8163 
-67.3564 1.12035 14.3163 -67.0417 -0.379651 13.3163 -67.0619 -0.879651 13.3163 
-66.9243 -5.05491 15.8163 -66.7154 -5.87965 16.8163 -66.7452 -5.87965 17.3163 
-66.7223 -5.87965 18.3163 -66.748 -5.87965 17.8163 -66.7944 -5.37965 15.8163 
-66.8731 -5.37965 16.3163 -66.6979 -5.87965 16.3163 -67.0242 -4.87965 19.3163 
-66.9243 -5.17402 19.3163 -66.6971 -5.87965 18.8163 -66.8507 -5.37965 19.3163 
-67.0688 -4.37965 19.8163 -67.0864 -3.87965 20.3163 -67.1303 -3.37965 20.8163 
-67.2892 -2.87965 20.8163 -67.7539 0.620348 19.8163 -67.8783 1.12035 19.3163 
-67.9243 1.12035 19.0245 -67.7831 1.12035 19.8163 -68.083 1.62035 17.3163 
-68.0063 1.62035 16.8163 -68.0628 1.62035 18.3163 -67.9545 1.12035 18.8163 
-67.9868 1.62035 18.8163 -68.102 1.62035 17.8163 -67.9243 1.62035 16.3197 
-67.8407 1.62035 15.8163 -67.7297 1.62035 15.3163 -67.592 1.62035 14.8163 
-67.4243 -1.87965 20.9537 -67.4548 -0.879651 20.8163 -67.4243 -1.37965 20.9558 
-67.4243 -0.879651 20.914 -67.5945 -0.379651 20.3163 -67.614 0.120348 20.3163 
-67.6523 0.620348 20.3163 -67.2331 -2.37965 21.3163 -67.0257 -4.37965 14.8163 
-67.1017 -3.87965 14.3163 -67.1092 -3.37965 13.8163 -67.0827 -2.87965 13.3163 
-66.9243 -4.73374 14.8163 -66.9243 -4.87965 15.2229 -66.9243 -4.91559 15.3163 
-67.0615 -1.37965 13.3163 -66.9889 -2.37965 12.8163 -66.9243 -1.87965 12.7696 
-66.9243 -1.696 12.8163 -67.4001 1.62035 14.3163 -67.0025 0.120348 13.3163 
-66.9243 0.620348 13.2582 -67.1479 1.12035 13.8163 -67.2052 1.62035 13.8163 
-66.9243 -0.379651 13.0511 -66.9243 0.120348 13.1422 -66.9243 -0.879651 12.9797 
-66.7317 -5.37965 15.3163 -66.5048 -6.15464 16.3163 -66.4818 -6.19231 16.415 
-66.4243 -6.37965 16.8872 -66.5074 -6.37965 17.3163 -66.5031 -6.37965 17.8163 
-66.4677 -6.37965 18.3163 -66.6812 -5.57437 15.511 -66.6525 -5.74875 15.8163 
-66.6284 -5.87965 15.9534 -66.54 -6.03492 16.0278 -66.9243 -4.87965 19.8984 
-66.9243 -4.9464 19.8163 -66.7918 -5.37965 19.8163 -66.4773 -6.37965 18.8163 
-66.6651 -5.87965 19.3163 -66.9577 -4.37965 20.3163 -66.9243 -4.49537 20.3163 
-66.982 -3.87965 20.8163 -66.9243 -4.05806 20.8163 -66.9243 -4.37965 20.4422 
-67.0032 -3.37965 21.3163 -66.9243 -3.67667 21.3163 -66.9243 -3.87965 21.0717 
-67.123 -2.87965 21.3163 -67.6691 1.12035 20.3163 -67.8765 1.62035 19.3163 
-67.9243 1.62035 19.1122 -67.749 1.62035 19.8163 -68.1589 2.12035 17.3163 
-68.105 2.12035 16.8163 -68.0292 2.12035 16.3163 -68.0998 2.12035 18.3163 
-68.0139 2.12035 18.8163 -68.154 2.12035 17.8163 -67.9243 1.62364 16.3163 
-67.9454 2.12035 15.8163 -67.9243 2.12035 15.7091 -67.8331 2.12035 15.3163 
-67.665 2.12035 14.8163 -67.4243 1.75674 14.3163 -67.2874 -1.87965 21.3163 
-67.3032 -1.37965 21.3163 -67.4531 -0.379651 20.8163 -67.4243 -0.379651 20.9087 
-67.2989 -0.879651 21.3163 -67.2976 -0.379651 21.3163 -67.4716 0.120348 20.8163 
-67.5178 0.620348 20.8163 -67.5207 1.12035 20.8163 -66.9993 -2.37965 21.8163 
-66.9243 -2.77467 21.8163 -67.0932 -1.87965 21.8163 -66.9937 -4.37965 14.3163 
-66.9243 -4.6782 14.3163 -67.0513 -3.87965 13.8163 -67.0239 -3.37965 13.3163 
-66.9858 -2.87965 12.8163 -66.8805 -4.87965 14.8163 -66.9072 -4.74611 14.3163 
-66.8885 -4.83655 14.464 -66.781 -5.20375 14.9593 -66.8046 -5.09373 14.8163 
-66.8937 -1.37965 12.8163 -66.9243 -2.37965 12.5315 -66.7754 -1.87965 12.3163 
-66.6967 -1.37965 12.3163 -66.68 0.620348 12.8163 -66.9243 1.12035 13.2933 
-66.6412 1.12035 12.8163 -66.9764 1.62035 13.3163 -67.3104 2.12035 13.8163 
-67.0547 2.12035 13.3163 -67.4243 2.12035 14.1059 -66.79 -0.379651 12.8163 
-66.7511 0.120348 12.8163 -66.836 -0.879651 12.8163 -66.7236 -5.37965 15.1745 
-66.6909 -5.44598 15.2644 -66.6774 -5.48224 15.3163 -66.4243 -6.31062 16.5303 
-66.3548 -6.37965 16.5592 -66.1972 -6.55307 16.855 -66.4243 -6.51482 17.3163 
-66.4243 -6.51564 17.8163 -66.1769 -6.87965 18.3163 -66.4243 -6.4881 18.8163 
-66.8116 -4.87965 20.3163 -66.672 -5.37965 20.3163 -66.6181 -5.87965 19.8163 
-66.4544 -6.37965 19.3163 -66.4243 -6.37965 19.6898 -66.6704 -4.87965 20.8163 
-66.8212 -4.37965 20.8163 -66.6962 -4.37965 21.3163 -66.9243 -3.37965 21.5419 
-66.8633 -3.87965 21.3163 -66.6951 -3.87965 21.8163 -66.9243 -2.87965 21.7769 
-67.595 1.62035 20.3163 -67.8687 2.12035 19.3163 -67.9243 2.12035 19.1414 
-67.6899 2.12035 19.8163 -68.2313 2.62035 17.3163 -68.2061 2.62035 16.8163 
-68.2152 2.62035 17.8163 -68.1532 2.62035 16.3163 -68.0682 2.62035 15.8163 
-68.1521 2.62035 18.3163 -68.0616 2.62035 18.8163 -67.9243 2.48505 15.3163 
-67.9243 2.62035 15.189 -67.7937 2.62035 14.8163 -67.5022 2.12035 14.3163 
-67.6048 2.62035 14.3163 -67.1357 -1.37965 21.8163 -67.4243 0.120348 20.9658 
-67.1147 -0.879651 21.8163 -67.1117 -0.379651 21.8163 -67.3139 0.120348 21.3163 
[...]
POINT_DATA 4931
SCALARS scalars float
LOOKUP_TABLE default
-4.21505 -3.90873 -3.81477 -4.30919 -4.52138 -4.12411 -3.50434 -4.10433 -3.59463 
-3.4185 -3.72374 -4.63299 -4.61789 -4.82825 -4.43055 -3.18848 -3.09823 -4.30988 
-4.18146 -3.2842 -3.99972 -3.70054 -3.01886 -4.02073 -3.32188 -4.97556 -4.91505 
-5.00842 -4.70324 -5.30366 -5.122 -4.72191 -2.87094 -2.77887 -2.68767 -4.53038 
-2.98331 -3.40628 -4.40182 -4.10986 -3.82313 -2.45896 -2.55109 -2.61295 -3.60888 
-4.30777 -3.31303 -2.91168 -5.21523 -5.49593 -5.6005 -5.3904 -5.09713 -4.96971 
-5.68757 -5.40528 -5.80096 -4.99922 -2.55881 -2.17385 -2.4611 -2.1414 -2.3691 
-2.26851 -4.80704 -2.69229 -2.38965 -2.34705 -3.11845 -3.54253 -4.5194 -4.24092 
-3.97184 -1.964 -2.28514 -2.19619 -1.88252 -2.49812 -3.8861 -3.73976 -4.5769 
-4.04536 -3.1979 -3.46942 -5.56082 -5.98023 -5.89443 -5.90672 -6.0942 -5.7869 
-6.07858 -5.50064 -5.3992 -5.21842 -5.6794 -6.07455 -6.17676 -5.26653 -1.84329 
-1.73089 -2.10579 -1.64615 -2.54323 -2.2651 -1.98567 -2.90332 -3.33236 -4.93691 
-4.6625 -4.40197 -3.72202 -1.56854 -1.78324 -2.08312 -1.47974 -2.79048 -2.3623 
-3.7025 -4.22785 -4.78951 -4.61061 -4.13894 -3.04797 -6.36808 -6.26865 -6.65555 
-6.19639 -5.91349 -6.76986 -6.48197 -5.7592 -5.63439 -5.35965 -5.66975 -6.15503 
-6.45845 -6.5544 -5.17778 -4.67885 -1.42818 -1.56037 -1.32695 -1.24961 -2.41519 
-1.71713 -2.14685 -2.84322 -3.27188 -5.0919 -4.83247 -4.10537 -4.55727 -3.4469 
-1.1578 -1.38169 -1.60461 -0.881675 -1.05298 -1.08259 -1.90848 -2.59872 -2.20659 
-3.25424 -3.78078 -4.28137 -4.14231 -7.00336 -6.94503 -7.34408 -6.61042 -6.32919 
-7.17557 -7.18512 -6.89275 -6.17556 -6.05387 -5.78455 -5.52257 -5.59265 -6.07881 
-6.633 -6.84218 -7.23565 -4.69539 -5.10516 -1.01453 -1.1383 -1.29 -0.92029 
-0.834281 -2.57808 -1.45847 -1.88942 -3.01131 -5.26579 -5.08965 -3.88293 -4.31753 
-5.00705 -3.19188 -2.7569 -0.687914 -0.668714 -0.957352 -1.44453 -1.21877 -0.420778 
-0.759409 -0.394854 -2.79309 -2.51106 -1.64791 -2.31123 -3.28502 -3.6314 -4.05745 
-4.5807 -7.63429 -7.74489 -7.57744 -8.03196 -7.03026 -6.75229 -7.58413 -7.4584 
-7.86224 -7.30774 -6.4834 -6.21879 -5.96027 -5.70536 -5.57808 -6.56355 -6.06499 
-6.55463 -7.11528 -7.52045 -7.92043 -5.05387 -0.595823 -0.718181 -0.865045 -1.02949 
-0.301302 -0.44293 -0.475366 -2.3221 -1.20476 -1.61332 -1.79573 -5.44926 -3.62619 
-4.02993 -4.75132 -5.19511 -3.05656 -3.53719 -2.58586 -0.0951813 -1.38778e-17 2.77556e-17 
-0.274482 -0.528405 -0.752955 -0.950004 6.93889e-18 -1.38778e-17 1.38778e-17 -2.77556e-17 -2.76072 
-2.7183 -2.27738 -1.15429 -1.81359 -3.12762 -3.01065 -3.53724 -3.35054 -3.09162 
-4.02959 -3.72322 -3.51588 -4.54271 -8.31756 -8.14189 -8.02745 -8.42394 -7.45657 
-7.18644 -6.92099 -7.99589 -8.26891 -7.72595 -6.48448 -6.66233 -6.60758 -6.40746 
-6.1514 -5.57152 -5.55304 -6.04511 -7.05303 -7.04516 -6.53474 -7.02632 -7.54751 
-8.04753 -8.54051 -5.05848 -4.6615 -5.56185 -0.300795 -0.0642243 -0.445586 -0.610383 
-0.775821 -0.180002 0 1.38778e-17 5.55112e-17 0 -2.06956 -1.06131 -1.38528 
-1.81707 -3.80039 -4.48405 -4.23327 -4.9377 -5.64664 -5.3854 -5.79363 -2.93543 
-3.3689 -2.50231 0 1.38778e-17 0 2.77556e-17 -1.38778e-17 0 -0.407615 
-0.620446 -0.434748 -1.04412 -2.62375 -2.12192 -1.75999 -1.28496 -1.25482 -2.49498 
-3.01446 -2.99043 -4.03417 -3.51241 -3.5538 -4.55319 -8.70588 -8.54171 -8.44599 
-8.81723 -7.88554 -7.62394 -8.14881 -7.3662 -7.11176 -8.41311 -8.68126 -6.73773 
-6.7969 -6.60729 -5.90001 -6.35367 -6.05717 -7.536 -6.54341 -7.03419 -7.52183 
-7.53019 -8.02844 -8.52198 -8.96486 -5.07115 -4.62905 -5.60742 -0.0820343 0 
0 -0.227194 -0.360298 -0.598294 1.38778e-17 0 -0.953215 -1.13415 -0.70451 
-1.56304 -2.24814 -2.14524 -1.70386 -3.62749 -4.08466 -4.88651 -4.66942 -6.12119 
-5.83947 -5.26502 -2.67823 -2.66434 -3.14917 0 2.77556e-17 -2.77556e-17 -0.209527 
1.38778e-17 -2.77556e-17 -0.0779712 -0.629322 -0.713158 -1.62497 -1.98229 -1.24366 -1.22898 
-0.664606 -2.47055 -2.10827 -3.04936 -2.72453 -2.5117 -4.05527 -3.09974 -3.66112 
-4.14159 -8.97425 -9.09791 -9.23267 -8.91767 -9.2225 -9.50043 -8.32411 -8.06701 
-8.582 -7.81335 -8.83821 -7.56755 -6.86113 -7.31996 -9.1002 -9.0863 -7.04795 
-6.81549 -6.56164 -6.10487 -6.57962 -7.07268 -8.01937 -8.02085 -7.56767 -8.04031 
-8.5102 -8.99166 -5.12241 -4.18777 -4.79255 -5.23053 -5.71479 -6.19752 0 
2.77556e-17 0 0 1.38778e-17 2.77556e-17 -0.114724 -0.203855 -0.522225 -0.272626 
-0.880413 -0.456168 -1.47115 -1.02572 -0.0976826 -1.99544 -2.42678 -3.53427 -3.96246 
-4.51402 -4.39398 -5.11379 -6.43951 -5.61807 -6.30042 -5.75396 -3.10679 -1.38778e-17 
0 -0.202191 -6.93889e-18 -0.319272 -1.39445 -1.46341 -1.95188 -1.1078 -0.966144 
-0.560599 -0.309009 -1.95819 -2.0559 -2.55108 -2.67052 -3.16042 -3.75738 -9.37938 
-9.64271 -9.90997 -9.63436 -9.45592 -8.52412 -8.3442 -8.83482 -8.27516 -8.16726 
-9.23184 -9.52696 -8.03253 -7.78743 -7.53587 -9.36465 -9.78768 -7.32913 -7.28183 
-7.03055 -6.67722 -7.15943 -7.6429 -8.50639 -8.51591 -8.05359 -8.54041 -8.99147 
-9.47556 -9.04713 -9.47285 -4.25053 -4.84858 -5.26066 -5.76344 -6.25678 -6.7311 
-6.93889e-18 -0.0539119 1.38778e-17 0 -1.38778e-17 -0.814767 2.77556e-17 0 -0.158966 
-1.30613 -0.618593 1.38778e-17 0 -1.73664 -2.33948 -2.7369 -3.34872 -3.7607 
-4.88201 -4.1642 -4.83452 -4.53918 -5.57044 -5.04723 -6.71204 -6.03192 -6.50291 
-5.95745 -5.73877 -5.28522 -2.85075 0 -6.93889e-18 -0.113209 -0.122371 -1.45492 
-0.958481 -0.458261 -0.257584 -0.274831 1.38778e-17 0 -1.56071 -2.17645 -1.98971 
-1.61406 -2.21389 -2.78316 -3.27144 -2.82401 -3.30532 -3.82483 -9.78162 -9.97429 
-10.2211 -10.3268 -10.6022 -10.0358 -8.77387 -8.5216 -9.02537 -8.43485 -8.08455 
-8.12056 -9.7163 -9.47365 -9.33259 -9.95817 -9.91381 -10.2081 -7.85693 -7.64742 
-7.45687 -7.18268 -7.37872 -10.4715 -6.93916 -6.72182 -7.21844 -7.69417 -8.16108 
-8.12609 -9.02846 -8.61167 -8.97376 -9.96972 -9.47804 -4.35759 -4.20166 -5.333 
-4.88637 -5.81777 -6.29915 -6.77832 0 0 -1.38778e-17 0 -2.77556e-17 
-1.04556 -1.38778e-17 -0.41546 -1.49213 -2.16972 -2.58421 -3.26995 -3.68882 -4.11178 
-4.68371 -4.23995 -5.24222 -4.97653 -6.55078 -6.29728 -6.4393 -6.48383 -5.62366 
-6.20773 -5.97102 6.93889e-18 -1.38778e-17 0 0 -1.38778e-17 -0.465338 -1.05531 
-1.1754 0 0 -2.77556e-17 2.77556e-17 -1.67383 -2.28854 -1.78461 -1.18235 
-2.88152 -3.37016 -3.85963 -10.4716 -10.7034 -10.7419 -10.675 -11.0113 -9.19386 
-8.80602 -8.13933 -8.5745 -7.75798 -7.74042 -7.35709 -9.72564 -10.0907 -9.286 
-9.18028 -8.95049 -10.6299 -10.4569 -10.8967 -7.0331 -7.30725 -6.73453 -6.65182 
-6.46353 -11.0403 -6.37004 -6.15412 -6.03861 -7.26253 -7.74479 -8.22717 -8.63111 
-8.71154 -9.09129 -9.51633 -9.55506 -9.19651 -9.97322 -10.4704 -4.44231 -5.39647 
-4.93126 -5.91096 -6.05932 -6.39758 -6.88194 -7.36666 -0.814986 -1.38778e-17 -0.288346 
-0.367362 -1.38673 -0.942494 -1.84967 -1.90604 -2.41345 -2.99604 -2.87057 -3.4083 
-3.82262 -4.91815 -4.65685 -4.07749 -3.69902 -4.46603 -5.4187 -5.9262 -6.42835 
-5.88482 -6.37284 -6.10767 -5.87792 -2.77556e-17 -0.57249 -1.45432 -2.39226 -1.83016 
-0.690238 -0.716643 -1.2704 -2.9219 -3.43717 -3.77223 -3.94868 -10.8767 -10.9686 
-11.1441 -11.4175 -8.07772 -8.46152 -7.23678 -7.34887 -10.1753 -9.49226 -9.62144 
-8.99022 -8.86442 -8.55912 -10.5562 -10.3521 -9.88971 -11.1556 -11.2059 -10.8739 
-10.8468 -6.7233 -6.47206 -6.30666 -6.00948 -6.29357 -6.2347 -5.75908 -5.54861 
-5.79186 -5.39201 -5.82665 -7.84824 -8.28411 -8.33672 -8.64783 -9.04102 -9.58661 
-10.0087 -10.0295 -10.077 -9.52537 -9.43296 -10.4714 -4.47907 -5.42354 -4.98786 
-5.99473 -6.48368 -6.89843 -7.8648 -7.38773 -0.742622 2.77556e-17 -0.113108 1.38778e-17 
-1.24758 -1.63915 -2.30859 -2.70909 -3.30426 -3.10909 -5.27646 -5.07579 -3.50815 
-3.90211 -4.29686 -4.83204 -5.6066 -5.88016 -5.72689 -6.25559 -5.73778 2.77556e-17 
-0.0901821 -0.54814 -0.100126 -1.39692 -1.28916 -1.8922 -2.47714 -0.796639 -2.96561 
-3.45532 -4.01783 -11.283 -10.969 -11.4676 -11.5629 -11.2885 -11.2486 -7.73735 
-8.14149 -6.97849 -7.15369 -7.60252 -9.43551 -9.61465 -9.14275 -9.82515 -9.0119 
-8.74918 -8.37086 -8.0089 -10.1768 -10.4157 -10.7286 -10.7099 -10.6376 -10.9529 
-10.5652 -6.63094 -6.25534 -5.90799 -6.20083 -5.80056 -5.65641 -5.5223 -5.3077 
-5.68397 -5.46154 -5.00571 -5.06583 -5.10549 -5.34308 -5.04304 -7.80906 -8.5311 
-8.77665 -9.71368 -10.5296 -10.4862 -9.84072 -10.2837 -9.03388 -9.19065 -10.9874 
-4.51653 -5.54122 -5.01048 -6.00839 -6.42374 -6.94411 -7.52503 -7.24201 -0.359413 
-0.565617 0 0 2.77556e-17 -6.93889e-18 -1.05155 -1.57419 -1.98704 -2.39142 
-2.82298 -3.2706 -5.51186 -3.69063 -4.07405 -4.70566 -5.13268 -5.87765 -5.73006 
-5.3354 -5.33132 -5.99537 -5.88244 -5.87516 -5.61292 -5.25276 6.93889e-18 -6.93889e-18 
-0.169358 6.93889e-18 0 -0.902906 -1.45032 -1.98391 -1.86164 -2.50801 -0.896572 
-0.275344 -3.01736 -3.519 -3.49775 -4.02646 -11.6905 -11.8996 -11.468 -11.4811 
-11.3712 -11.1651 -10.749 -6.68577 -6.43614 -7.01771 -7.42217 -9.53698 -10.0826 
-9.92829 -8.91359 -8.46021 -8.27363 -8.17534 -7.84094 -10.4732 -9.92081 -10.6242 
-10.3223 -10.0174 -10.1407 -6.16938 -5.58637 -5.58108 -5.48249 -5.19454 -4.99375 
-4.79629 -4.61596 -4.8952 -4.43747 -4.85829 -4.77843 -4.76105 -7.70104 -8.04284 
-8.50591 -8.08524 -8.92276 -9.35416 -10.9954 -10.6396 -10.014 -10.1465 -8.54603 
-8.75575 -9.27948 -4.53854 -5.74008 -5.3721 -5.23127 -5.02447 -6.10121 -6.70431 
-7.01536 -7.35075 -1.38778e-17 -0.910083 -1.38778e-17 -0.305374 -0.368157 -0.997697 -1.36749 
-1.5525 -1.68053 -2.13757 -2.75867 -3.10689 -3.4652 -3.85125 -4.43901 -4.26843 
-4.79885 -5.33426 -5.35829 -5.68618 -5.92913 -4.90818 -5.47764 -5.94205 -5.81638 
0 0 0 -0.946296 -1.47378 -2.00655 -1.78516 -2.51846 -0.362842 
-0.828319 0 0 -3.02461 -3.42927 -3.98946 -11.3977 -11.9648 -11.5143 
-11.9712 -11.4909 -10.8198 -10.8882 -10.9579 -10.4929 -10.126 -6.62638 -6.30645 
-5.91433 -6.69492 -6.86439 -7.13797 -7.62131 -9.37206 -9.84014 -8.85622 -8.24279 
-8.01093 -7.78589 -9.9947 -9.52889 -9.37264 -10.0721 -9.46685 -9.76826 -5.20439 
-5.0109 -4.88297 -4.51379 -4.17261 -4.35734 -4.06133 -3.92826 -4.31659 -4.40418 
-4.24549 -4.77702 -4.22567 -7.32153 -7.04126 -7.58179 -8.29083 -8.00484 -9.81547 
-10.776 -11.2051 -10.6931 -10.2882 -10.217 -9.59183 -9.83047 -8.42782 -8.295 
-8.86077 -9.34884 -9.48893 -4.49849 -5.59473 -4.87255 -4.54291 -4.24758 -5.86122 
-6.17166 -6.4157 -6.73426 0 -0.242961 -0.743652 -1.3057 -1.26346 -1.02114 
-1.98915 -1.75108 -2.53245 -2.94586 -3.35675 -3.75132 -4.13637 -4.71274 -4.51934 
-5.17514 -5.41019 -4.85175 -5.43305 -5.61075 -4.78078 -5.6733 -0.937208 -1.48747 
-2.00244 -2.50071 -1.48074 -1.93646 -1.62493 -2.99241 0 -2.77556e-17 -0.0867295 
-0.390688 -0.397125 -0.746513 -3.13952 -2.7695 -2.95928 -3.8939 -3.63826 -11.6863 
-11.0469 -11.8036 -11.7593 -10.3423 -10.259 -10.6142 -10.193 -9.91669 -9.5113 
-6.20416 -5.67243 -5.40835 -6.45182 -6.88971 -7.56947 -9.29079 -9.54091 -9.36759 
-8.70395 -8.16693 -7.7283 -7.3349 -7.29878 -9.40347 -9.41571 -9.14526 -9.03464 
-8.96195 -8.90978 -4.82775 -5.12081 -3.8464 -4.11326 -3.68559 -3.47144 -3.68283 
-3.77204 -3.33388 -3.23791 -3.6281 -3.7391 -3.64106 -4.23533 -3.63238 -4.08955 
-7.18028 -6.47975 -6.80646 -7.80798 -7.14312 -8.07969 -11.5921 -10.9598 -11.3301 
-10.7228 -10.5318 -9.04997 -9.22121 -9.73019 -10.236 -8.39895 -7.96748 -8.00696 
-8.87748 -5.24354 -4.78001 -5.04884 -4.07512 -3.99455 -4.12915 -5.59019 -5.88753 
-6.22684 0 1.38778e-17 0 -0.317669 2.77556e-17 -0.464027 -0.844337 -0.799533 
-1.56129 -1.36205 -0.891565 -0.524417 -2.3162 -2.18231 -2.65547 -2.84054 -3.03945 
-3.45003 -3.8649 -4.9218 -4.28118 -5.55121 -4.92597 -4.24972 -4.31244 -4.95641 
-5.73293 -5.072 -0.927074 -2.44774 -1.43294 -1.90523 -2.35147 -1.69706 -1.36875 
-1.41491 0 0 2.77556e-17 2.42861e-17 -0.384137 -0.601 -0.358853 -0.851695 
-2.64827 -2.73131 -2.62789 -3.45673 -3.73514 -11.3778 -11.1585 -10.6915 -10.4119 
-11.578 -10.0312 -9.78545 -9.55626 -9.63792 -9.69416 -9.32047 -6.02125 -5.60514 
-5.33715 -4.90926 -6.36363 -6.84151 -9.16943 -9.36955 -8.82187 -8.82221 -8.60203 
-8.06104 -7.59787 -7.13705 -8.84743 -8.83607 -8.89161 -8.64896 -9.02657 -8.42556 
-8.37226 -4.56023 -4.34773 -3.7622 -3.99931 -3.42077 -3.04728 -3.20897 -2.88142 
-3.06472 -3.1153 -2.95425 -3.09006 -3.54926 -3.64737 -3.46055 -3.6985 -6.78772 
-6.5576 -6.8333 -7.55156 -6.99154 -11.0932 -11.2075 -11.3841 -10.9001 -10.6372 
-8.96173 -9.2983 -8.68004 -9.36103 -9.80251 -10.0764 -8.58752 -7.5637 -7.2795 
-7.57145 -8.46932 -7.81157 -4.30583 -4.64588 -5.3309 -5.01761 -3.5029 -3.55654 
-3.78113 -5.64676 -5.98045 -6.33446 0 -0.348881 0 -0.629784 -0.238308 
-0.410365 -1.80438 -1.11465 -1.52544 -1.28184 -0.487101 -2.59831 -1.84684 -2.33309 
-2.99001 -2.79656 -3.36868 -3.75598 -4.71054 -5.32603 -4.15231 -4.76408 -4.36239 
-3.95185 -5.28274 -5.73523 -4.42264 -4.60023 -4.73676 -2.1666 -1.64281 -2.03142 
-1.23877 -0.932613 -0.800817 -1.73472e-17 -0.382863 -0.234619 -0.307735 6.93889e-18 0 
-2.389 -2.96527 -2.22816 -3.16937 -2.23875 -11.2199 -11.4031 -10.7588 -10.5431 
-10.5802 -9.89512 -10.079 -9.24523 -9.50687 -9.46913 -5.8494 -5.53526 -5.27439 
-4.49931 -4.74018 -6.22888 -6.6801 -8.94533 -8.83482 -8.28146 -8.26638 -8.30909 
-8.63656 -8.5282 -7.9452 -7.49096 -7.02388 -8.67821 -8.31449 -8.88574 -9.07022 
-8.46423 -7.88979 -8.27571 -7.98632 -7.83244 -4.25725 -3.80088 -3.11009 -2.79626 
-2.57859 -2.33887 -2.75431 -2.59264 -2.56904 -2.54061 -2.47259 -2.45679 -2.83646 
-3.05058 -3.06487 -3.04091 -3.78205 -3.13731 -3.28495 -6.31759 -6.72173 -11.0304 
-11.075 -11.3538 -10.84 -10.4167 -8.78709 -9.4425 -9.58516 -8.11468 -8.61598 
-10.2549 -7.13034 -7.1838 -7.97859 -7.64322 -4.55221 -4.85206 -5.37449 -5.17544 
-3.27647 -3.6569 -3.23527 -4.08111 -5.66274 -5.90153 0 0 5.55112e-17 
0 0 0 0 2.77556e-17 -0.312805 -0.928756 -2.16219 -2.03126 
-1.40766 -1.14342 -0.844474 -0.687572 -0.54944 -1.04083e-17 -2.77556e-17 -2.47684 -2.50059 
-3.20141 -2.97563 -3.6262 -5.1397 -4.56097 -4.06662 -3.94378 -3.80783 -5.43752 
-4.91287 -5.34319 -5.34866 -5.20153 -5.25888 -4.40264 -4.02314 -4.8273 -4.38056 
-1.31541 -1.76474 -0.637264 -0.550531 -0.773261 -0.129956 0 1.38778e-17 -0.234988 
1.38778e-17 0 2.77556e-17 0 -2.54067 -2.49402 -2.04298 -1.94743 -10.8397 
-11.2128 -10.5661 -10.1231 -10.1664 -9.94822 -9.3244 -9.16888 -8.98886 -8.71482 
-5.77844 -5.57774 -5.11538 -4.66404 -6.07213 -5.80354 -6.5546 -8.84691 -8.27193 
-8.29738 -7.99021 -7.73807 -7.70632 -7.70833 -8.26044 -7.91283 -7.44209 -6.97353 
-7.71538 -8.56326 -8.60758 -8.43971 -7.53322 -7.96472 -7.45025 -7.784 -8.00972 
-7.80379 -3.62147 -4.00565 -3.34308 -2.69846 -3.01897 -2.39088 -1.99935 -2.11255 
-2.11207 -1.83078 -1.63121 -2.04612 -2.45879 -1.88792 -1.87191 -2.28041 -2.44881 
-1.84345 -2.47142 -2.72356 -3.30922 -3.16731 -2.63287 -6.14768 -6.42838 -6.62698 
-10.8795 -10.6924 -10.9461 -10.9783 -10.8965 -10.4991 -10.4365 -10.2886 -8.88241 
-9.69625 -9.11722 -8.03481 -8.14255 -8.29762 -10.0362 -9.93231 -6.75276 -6.99843 
-7.79735 -7.12752 -7.31486 -4.76028 -4.40891 -5.12545 -5.53339 -3.33236 -3.03071 
-2.86297 -3.6632 -4.00323 -5.51131 0 -1.04083e-17 -1.72193 -2.24305 -1.0007 
-1.16284 -1.44182 -0.863142 0 -0.0241155 -0.267023 -2.85647 -3.42256 -3.86549 
-4.98507 -5.21503 -4.50072 -4.29115 -3.7456 -5.07322 -4.72795 -5.03388 -4.63768 
-4.14702 -3.70021 -4.63279 -3.94545 -0.912718 -1.64023 -0.305993 -0.580519 0 
-1.38778e-17 1.38778e-17 0 -0.171229 -2.30732 -2.76222 -2.02775 -1.77374 -1.5901 
-1.38838 -10.4927 -10.3044 -10.0521 -9.67848 -9.48142 -8.83516 -8.96117 -8.1987 
-8.11393 -8.44447 -5.54415 -5.00477 -4.47147 -4.47956 -6.04311 -6.50759 -5.89717 
-5.41946 -7.86993 -8.10185 -7.71708 -7.19932 -7.60459 -7.71836 -7.16697 -7.18255 
-7.78658 -7.48797 -7.17193 -6.84145 -6.36871 -7.2678 -7.33391 -7.36802 -7.51268 
-6.92299 -7.02201 -7.88353 -3.54736 -3.89296 -3.61854 -3.34866 -2.87882 -2.50372 
-2.21862 -1.74969 -1.30447 -1.94284 -1.47222 -1.40383 -1.02214 -1.26399 -1.77079 
-2.15152 -1.84798 -1.26524 -1.25423 -1.55178 -2.51016 -1.87225 -3.39576 -3.06229 
-2.67136 -2.53913 -5.91976 -6.3326 -6.40095 -5.97165 -10.5736 -10.5897 -10.9476 
-10.3043 -10.0464 -10.1666 -9.97293 -8.97462 -8.80072 -9.77798 -9.61706 -8.20741 
-7.98834 -9.53419 -9.67348 -9.89379 -9.73868 -6.84707 -7.35525 -7.49514 -7.20846 
-6.54144 -4.66416 -4.9757 -3.25845 -2.91457 -2.59779 -3.98669 -3.61281 -4.36035 
-5.26689 -2.05537 -2.74245 -2.5563 -1.2646 -0.699201 -2.02033 -1.86005 -0.262284 
-0.426894 3.46945e-18 -2.77556e-17 0 0 -3.2122 -3.66676 -4.09811 -4.9349 
-4.95236 -4.70269 -3.47901 -4.4388 -4.32969 -4.25045 -4.56274 -3.25859 -3.02264 
-3.39075 -4.27147 -4.29938 -3.64451 -4.17116 -0.696791 -1.12632 -1.22269 0 
1.38778e-17 -0.212938 0 -0.177173 0 -1.38778e-17 -2.05111 -2.45896 -1.67334 
-1.38721 -1.30409 -1.04341 -1.50749 -0.77533 -10.3037 -9.83521 -9.1127 -9.47325 
-9.0569 -8.87737 -8.42652 -8.27209 -7.67407 -4.94306 -4.31738 -5.8377 -6.33062 
-5.30859 -4.79877 -7.74664 -7.17303 -7.17641 -6.67783 -7.24971 -6.72478 -6.65249 
-6.65006 -6.65793 -6.88269 -7.20023 -7.54578 -7.35187 -7.04208 -6.72778 -6.79869 
-6.7766 -7.6085 -6.90836 -7.23 -6.5976 -6.55283 -7.02852 -6.43697 -3.83205 
-3.68614 -3.26171 -2.70127 -2.97229 -2.06555 -1.57559 -1.09667 -0.627067 -1.35832 
-0.841645 -0.921216 -0.663615 -1.05504 -1.25901 -0.607032 -1.98471 -1.32403 -2.80882 
-2.12667 -5.53156 -6.0866 -5.82169 -10.4954 -10.6865 -10.2402 -9.7838 -10.0722 
-9.70795 -9.10609 -8.46435 -9.01112 -9.31865 -9.30675 -7.67618 -7.42056 -8.20755 
-9.3912 -9.42042 -9.60552 -7.20606 -7.00703 -6.3785 -6.3124 -4.73583 -2.51984 
-2.87588 -3.24434 -3.91606 -4.3768 -5.12991 -3.03193 -2.27814 -2.38413 -2.89175 
-1.27618 -0.554467 -1.13338 -1.38344 -1.71044 -2.32362 -1.38778e-17 -0.114345 -3.58605 
-3.78706 -3.96136 -4.45024 -4.03207 -4.05931 -3.94026 -3.79631 -3.86468 -4.16895 
-3.12194 -2.63599 -2.47197 -3.52093 -2.81695 -3.09981 -4.16736 -3.82034 -3.91648 
-3.75713 -0.490409 -1.38778e-17 0 -1.38778e-17 0 -1.8683 -2.1831 -1.57307 
-0.848359 -1.14364 -0.861682 -0.455327 -0.163493 -10.046 -9.42096 -9.23949 -8.94851 
-8.62473 -7.90293 -8.01356 -7.82128 -7.26725 -4.17561 -5.77314 -6.11714 -6.43109 
-5.10213 -4.6658 -7.20835 -6.67152 -6.2185 -6.18266 -6.14901 -6.17656 -6.1491 
-6.152 -6.66745 -6.16661 -6.69425 -7.24868 -7.05521 -6.74164 -6.29061 -6.39796 
-6.73734 -6.05732 -6.1263 -6.2325 -6.78242 -7.40566 -5.91715 -5.94552 -3.19301 
-3.55664 -3.06199 -2.5807 -1.95048 -1.45944 -2.13746 -0.969115 -0.532862 -0.205683 
-0.117382 -0.59473 -0.138322 1.38778e-17 2.77556e-17 -0.0941976 -0.877458 -0.662027 2.77556e-17 
1.38778e-17 -0.448869 -1.45471 -0.792994 -2.32536 -1.62301 -2.16612 -5.19855 -5.78342 
-5.62861 -10.3743 -10.3742 -9.67917 -9.96137 -10.0372 -9.66138 -9.32968 -9.19931 
-8.59353 -8.73987 -9.03202 -8.84821 -8.6196 -8.78232 -8.96124 -9.16878 -7.43969 
-7.79886 -7.96653 -8.6255 -9.23155 -6.94172 -6.57365 -6.72694 -6.72575 -5.97885 
-6.25094 -4.78289 -1.78404 -2.1437 -2.52056 -3.62934 -2.89959 -3.30088 -4.24883 
-3.49896 -3.36892 -2.40369 -2.72428 -3.18675 -0.530824 2.77556e-17 -2.77556e-17 -0.772502 
-0.874959 -1.53711 -2.24076 -2.02905 1.38778e-17 1.38778e-17 -3.87825 -3.75544 -3.80144 
-3.62465 -3.34586 -3.63818 -3.55374 -3.24941 -3.46904 -3.30099 -2.10288 -1.86207 
-2.3821 -2.71353 -3.42904 -3.50078 -3.69021 -3.35438 -0.084099 0 -1.45239 
-0.572305 -0.136208 -0.420784 -0.728992 -1.17757 -0.75397 -0.318766 -6.93889e-18 -6.93889e-18 
0 0 -9.60702 -8.89721 -9.09569 -9.52047 -8.80279 -8.20041 -8.67445 
-7.57243 -7.59587 -8.16421 -4.04118 -4.63137 -5.41409 -5.71965 -6.0252 -4.72825 
-5.73253 -5.79027 -5.75205 -5.65893 -5.65481 -5.66822 -6.1951 -6.73721 -6.6556 
-6.33538 -5.81199 -5.64109 -5.57675 -5.76015 -6.33336 -6.96849 -6.85633 -5.43853 
-5.33734 -3.36827 -2.9274 -2.44175 -1.89587 -1.42572 -0.867619 -2.28118 -0.4824 
-0.389031 0 -6.93889e-18 4.16334e-17 0 0 0 0 0 
0 1.38778e-17 -0.204155 -0.61361 -1.38778e-17 -1.38778e-17 -1.13734 -0.87438 -1.17052 
-5.32935 -4.88615 -4.54908 -4.77079 -5.51219 -5.17255 -9.98137 -9.79696 -9.35725 
-9.17169 -10.0193 -9.48966 -9.25812 -9.62363 -9.13033 -8.4763 -8.29027 -8.24412 
-8.40713 -8.64066 -9.04483 -7.81013 -7.22361 -6.82193 -8.49852 -8.23346 -8.44452 