# vtk DataFile Version 4.2
3D Slicer output. SPACE=LPS
ASCII
DATASET POLYDATA
POINTS 12846 float
10.8444 -34.6786 9.29817 11.2584 -34.9689 9.53633 10.8354 -34.6849 9.68106 
10.4192 -34.3893 9.39177 10.6977 -34.5761 9.10226 11.1337 -34.8531 9.10246 
10.6991 -34.62 9.97025 11.2107 -34.9679 9.97033 11.2775 -34.8772 8.544 
11.7122 -35.2357 9.39178 11.5651 -35.1751 9.70673 11.5636 -35.1795 9.97029 
10.5551 -34.4917 9.68106 10.4371 -34.3893 9.10248 10.2658 -34.2804 9.39177 
10.2658 -34.2599 9.10248 10.4078 -34.3893 9.68106 10.9025 -34.6786 8.8132 
10.6979 -34.5444 8.81283 10.7453 -34.6786 10.2596 10.8444 -34.7489 10.2596 
11.1337 -34.937 10.2596 10.2658 -34.3023 9.97034 10.5551 -34.5402 10.2596 
11.1851 -34.9679 10.2596 11.5616 -35.1824 10.2596 11.0273 -34.6786 8.23462 
11.1337 -34.749 8.23461 11.4448 -34.9541 8.2346 11.7123 -35.1338 8.52389 
11.7122 -35.1601 8.8132 11.7132 -35.2566 9.68106 11.7507 -35.2571 9.39178 
11.898 -35.2572 8.81319 11.856 -35.3347 9.97032 12.0015 -35.4048 9.68107 
10.4804 -34.338 8.50056 10.0413 -34.1 9.39177 10.0247 -34.0563 9.10234 
10.2658 -34.2896 9.68106 10.0493 -34.0365 8.81304 10.1745 -34.1 8.52391 
10.8444 -34.5568 8.23462 10.755 -34.6786 10.5489 10.5551 -34.5347 10.5489 
11.1337 -34.9246 10.5489 10.8444 -34.7405 10.5489 9.99924 -34.085 9.82566 
10.3624 -34.3893 10.2596 10.0566 -34.1392 10.2596 10.3834 -34.3928 10.6939 
11.206 -34.9679 10.5489 11.7033 -35.2623 10.5489 12.0015 -35.4107 10.2596 
11.423 -35.0965 10.5489 10.8444 -34.5384 7.94534 11.0514 -34.6786 7.94534 
11.439 -34.9447 7.80043 11.1337 -34.7341 7.94534 11.4815 -34.9679 7.94535 
11.7122 -35.1169 8.23463 11.9735 -35.2548 8.08998 12.0026 -35.2759 8.37936 
12.0015 -35.3877 9.39178 12.0015 -35.3084 8.8132 12.2908 -35.5417 9.85955 
12.2908 -35.5199 9.39176 10.2048 -34.1 8.23462 10.2411 -34.1207 8.09006 
10.5551 -34.3594 8.23462 10.5985 -34.3893 8.23462 9.97655 -34.0424 9.39177 
9.85093 -33.9407 9.53598 9.49449 -33.543 9.13883 9.80461 -33.8107 8.81321 
9.68725 -33.6996 8.8132 9.97655 -33.9357 8.52391 9.97655 -33.9192 8.23462 
10.6215 -34.3893 7.94534 10.409 -34.374 10.9831 10.8444 -34.6786 10.9895 
11.1337 -34.8894 10.8382 9.54215 -33.6703 9.7512 9.68318 -33.8144 10.2596 
10.2636 -34.2979 10.6938 9.99756 -34.0819 10.5489 9.68773 -33.8077 10.4059 
11.2559 -34.9679 10.8382 11.6832 -35.2576 10.9828 11.7123 -35.2742 10.8382 
12.0015 -35.4262 10.5489 12.2416 -35.5701 10.8382 12.5801 -35.6913 10.2596 
11.423 -35.0789 10.8382 10.8444 -34.5677 7.65605 11.0086 -34.6786 7.65605 
11.3506 -34.9122 7.59606 11.7123 -35.1293 7.65605 11.7123 -35.1127 7.94535 
11.9493 -35.2571 7.65605 12.0015 -35.2834 7.65605 12.0015 -35.2718 7.94534 
12.577 -35.5463 8.08997 12.5763 -35.5482 8.52391 12.2908 -35.4394 8.81321 
12.6164 -35.6415 9.24716 12.5801 -35.6765 9.97034 12.396 -35.5807 9.53614 
9.86737 -33.8314 8.03065 10.1996 -34.1 7.65605 10.2658 -34.1508 7.65604 
10.2658 -34.1404 7.94534 10.5551 -34.3448 7.94534 9.10869 -33.1923 9.10247 
9.12067 -33.2321 9.53641 9.83188 -33.8107 8.52391 9.68869 -33.6804 8.37928 
10.5722 -34.3772 7.65606 10.5551 -34.4541 11.1275 10.5426 -34.3986 11.4168 
10.1388 -34.1 11.4168 10.033 -34.0805 10.9831 10.8711 -34.6786 11.1275 
11.1337 -34.8642 11.1275 9.37654 -33.5214 9.97034 9.10869 -33.2321 9.70776 
9.39797 -33.5426 9.97034 9.32759 -33.4515 10.4752 9.69306 -33.8107 10.5489 
9.70313 -33.7837 10.9828 11.2799 -34.9679 11.1275 11.8527 -35.3724 11.2722 
11.6965 -35.2675 11.7061 11.3471 -35.0245 11.7061 12.0015 -35.4472 10.8382 
12.1735 -35.5464 11.1275 12.2908 -35.6014 11.1275 12.0015 -35.4576 11.1275 
12.5801 -35.7328 10.8382 12.8694 -35.8357 10.4563 12.8694 -35.796 9.97032 
12.8694 -35.816 10.2596 10.5487 -34.3944 7.42623 10.8852 -34.6512 7.36684 
11.2881 -34.9332 7.2226 11.423 -35.0265 7.07749 11.7323 -35.2309 6.93277 
11.799 -35.2571 7.07748 11.878 -35.2571 7.36676 12.0015 -35.3202 7.36676 
12.2908 -35.4158 7.65605 12.5604 -35.5464 7.65605 12.8694 -35.6928 8.52391 
13.1587 -35.849 8.2346 12.5801 -35.5568 7.65605 12.9814 -35.7738 7.94537 
12.5321 -35.5464 8.8132 12.5801 -35.5683 8.8132 13.0064 -35.7704 8.81322 
13.1587 -35.843 8.81319 12.8684 -35.7796 9.53627 13.0358 -35.8357 9.39177 
9.84122 -33.8295 7.40021 10.0926 -34.0391 7.33955 9.66957 -33.6738 7.67077 
10.2658 -34.177 7.36675 8.87817 -32.9428 8.8132 8.99534 -33.0602 8.52374 
9.3082 -33.3504 8.42238 8.86521 -32.9428 9.39177 8.97971 -33.0893 9.68093 
9.45247 -33.4781 7.92322 10.8444 -34.6311 11.4168 10.5556 -34.3862 11.6618 
10.1852 -34.1 11.7061 10.2658 -34.1594 11.7061 9.97656 -33.9777 11.4168 
9.83333 -33.8107 11.9953 9.74504 -33.8107 11.1275 10.9047 -34.6786 11.4168 
11.2783 -34.9679 11.4168 9.107 -33.2382 10.1138 8.97657 -33.0907 10.0428 
9.24096 -33.3074 11.0456 9.14401 -33.2605 10.3611 9.50722 -33.5706 11.2734 
9.68726 -33.7182 11.7061 12.0015 -35.4437 11.7061 11.7049 -35.2618 11.9953 
12.0015 -35.4325 11.9953 11.423 -35.0706 11.9953 11.0476 -34.7923 11.923 
11.2807 -34.9679 11.9953 12.4336 -35.6424 11.5617 12.2908 -35.5648 11.9954 
12.5801 -35.728 11.1275 12.5801 -35.7048 11.4168 12.8694 -35.845 10.5489 
12.813 -35.8357 10.8382 13.1587 -35.9551 10.5489 13.1587 -35.9184 10.2596 
12.9879 -35.8357 9.97032 10.5151 -34.4203 7.07753 10.8697 -34.6785 7.07748 
11.1337 -34.8498 7.07748 10.8444 -34.6615 7.07748 11.3011 -34.9679 6.78819 
11.423 -35.0441 6.78819 11.7236 -35.2365 6.82696 11.8737 -35.328 6.85681 
11.5812 -35.1525 6.74083 11.9016 -35.3375 6.93084 12.0015 -35.3728 7.07748 
12.2908 -35.4508 7.36676 12.5024 -35.5464 7.36676 12.5801 -35.5845 7.36676 
13.157 -35.8357 8.52391 13.1587 -35.897 7.65606 13.5476 -36.077 7.94553 
13.448 -35.9932 8.23463 13.448 -35.9697 8.52391 12.8694 -35.7258 7.65605 
13.0549 -35.8357 7.65604 13.448 -35.9698 8.81322 13.1587 -35.8859 9.39178 
13.3036 -35.941 9.68104 13.1587 -35.893 9.97033 9.63805 -33.657 7.36435 
9.59772 -33.6445 7.07167 10.05 -34.0354 7.0766 10.2667 -34.2402 6.93265 
8.7766 -32.8193 8.95779 8.7261 -32.776 9.68102 8.98764 -33.0313 8.24106 
8.81938 -32.8582 8.52393 9.22896 -33.2636 7.80189 8.72504 -32.7768 9.97035 
9.4041 -33.4392 7.45094 10.5551 -34.3842 11.9953 10.2658 -34.1326 12.2846 
10.2265 -34.1 12.2846 9.97655 -33.9254 11.9953 9.73938 -33.752 11.8512 
9.88672 -33.8107 12.2846 9.10869 -33.232 10.2596 8.83516 -32.8934 10.4044 
9.16609 -33.1737 11.5615 9.39796 -33.4341 11.7061 9.48087 -33.5214 11.7061 
9.51949 -33.5214 11.9953 11.7123 -35.2571 12.091 12.2976 -35.5469 12.2582 
12.0015 -35.4004 12.2846 11.3232 -34.9679 12.2846 11.5667 -35.1345 12.2848 
10.927 -34.6786 12.2846 11.1337 -34.8332 12.2846 10.8444 -34.6152 12.2846 
13.1587 -35.8672 11.7061 12.5801 -35.6711 11.9953 12.5801 -35.6492 12.2846 
12.8694 -35.8398 11.1275 12.9836 -35.8357 11.4168 12.8694 -35.8607 10.8382 
13.448 -36.0084 10.2596 13.448 -36.0414 10.5489 13.1587 -35.9715 10.8382 
13.448 -35.9886 9.97033 10.4272 -34.3893 6.78818 10.6984 -34.5795 6.78834 
10.8444 -34.6786 6.73322 11.1337 -34.8609 6.78819 11.1908 -34.9162 6.63867 
11.2736 -34.9679 6.6485 11.3622 -35.0282 6.64309 11.423 -35.0651 6.65034 
12.0015 -35.391 6.95499 12.1541 -35.4644 7.00055 12.2908 -35.5033 7.12769 
12.5634 -35.628 7.18541 12.6241 -35.6482 7.20975 12.6535 -35.6593 7.22216 
12.7983 -35.7259 7.28949 13.1823 -35.937 7.50733 13.2267 -35.9611 7.5194 
13.3212 -35.9888 7.65607 13.4878 -36.067 7.77165 13.5607 -36.1042 7.7815 
13.6406 -36.1423 7.8035 13.7373 -36.1251 8.23672 13.7373 -36.0909 8.52391 
13.7373 -36.0832 8.81321 12.8716 -35.7662 7.32413 12.9708 -35.8146 7.42217 
13.009 -35.8357 7.43496 13.7663 -36.1147 9.10246 13.448 -36.0039 9.39176 
13.769 -36.1149 9.68109 13.7373 -36.0853 9.97034 9.74258 -33.8107 6.78818 
9.97655 -34.0197 6.78818 9.42992 -33.5307 6.804 9.64289 -33.7386 6.72328 
9.23756 -33.3413 6.87475 10.0696 -34.1 6.78818 10.2658 -34.3192 6.49891 
10.3662 -34.3893 6.49891 8.66757 -32.6535 8.52392 8.49939 -32.4075 8.88554 
8.54445 -32.5102 9.3917 8.48073 -32.4359 9.97034 8.36478 -32.2567 9.60866 
9.00577 -33.0333 7.72874 8.81938 -32.8412 8.23462 8.8194 -32.8327 7.94534 
9.17161 -33.2244 7.33653 8.64868 -32.6545 10.4043 10.5551 -34.3776 12.2846 
10.5689 -34.3893 12.2846 10.2693 -34.1002 12.5549 10.5551 -34.3436 12.5739 
9.97655 -33.8894 12.2846 9.58573 -33.5214 12.2846 9.68726 -33.6249 12.2846 
9.96943 -33.8176 12.5739 8.76686 -32.7489 10.9106 8.98851 -32.9432 11.5615 
9.10587 -33.0632 11.8511 9.26033 -33.2321 11.9953 9.39797 -33.3927 11.9953 
11.7558 -35.2571 12.2846 12.2889 -35.5211 12.4299 12.414 -35.5464 12.5739 
11.7815 -35.2147 12.5741 12.1431 -35.3897 12.72 11.4542 -34.9685 12.7574 
11.0599 -34.7324 12.574 10.7263 -34.4828 12.5742 12.982 -35.7918 12.1401 
13.1587 -35.8908 11.4168 13.448 -35.9715 11.706 13.3038 -35.8967 12.1399 
13.7373 -36.0361 12.5739 13.0143 -35.7625 12.5738 12.5801 -35.6115 12.5739 
13.1587 -35.9398 11.1275 13.7373 -36.0886 10.2596 13.448 -36.0569 10.8382 
13.7373 -36.1189 10.8382 13.448 -36.03 11.1275 10.5551 -34.5144 6.49891 
10.8097 -34.6786 6.49892 10.8444 -34.7008 6.49892 11.1337 -34.8929 6.49892 
11.1904 -34.9314 6.49892 13.7373 -36.1729 7.90948 13.916 -36.2285 8.05669 
14.0265 -36.2454 8.23463 13.8236 -36.125 8.5239 13.8517 -36.125 8.81321 
14.0266 -36.2039 9.10246 13.7547 -36.125 9.39176 14.0266 -36.2136 9.39175 
13.7373 -36.1185 9.39176 14.0266 -36.1891 9.68104 13.8834 -36.125 9.97032 
9.8307 -33.9719 6.49936 9.98058 -34.0998 6.48896 9.10869 -33.2422 6.78819 
9.32072 -33.5214 6.49892 9.39796 -33.5914 6.49891 8.81988 -32.9498 6.81843 
9.10869 -33.1876 7.07748 10.557 -34.6309 6.09094 10.2601 -34.3932 6.20964 
9.95164 -34.2867 5.91332 8.67189 -32.6536 8.23462 8.5301 -32.4535 8.23462 
8.53014 -32.4453 8.5239 8.28751 -32.075 8.5239 8.10564 -31.822 9.19283 
8.48234 -32.4323 10.2596 8.16042 -31.9277 10.4043 8.19956 -31.991 9.8257 
8.15747 -31.919 9.53637 8.84362 -32.9008 7.22191 8.73414 -32.7482 7.6561 
8.66772 -32.6536 7.94534 8.48777 -32.4227 10.5489 10.2633 -34.0635 12.7192 
10.3438 -34.1 12.8632 10.5551 -34.2847 12.8632 9.39797 -33.3173 12.2846 
9.39797 -33.2321 12.5224 9.68213 -33.5268 12.5739 9.97655 -33.8107 12.6229 
[...]
POINT_DATA 12846
SCALARS scalars float
LOOKUP_TABLE default
-2.61824 -2.63881 -2.96189 -2.94627 -2.53187 -2.30266 -3.28309 -3.05956 -1.76052 
-2.34709 -2.69077 -2.94461 -3.11114 -2.69875 -3.04538 -2.82009 -3.19627 -2.17967 
-2.30267 -3.51757 -3.47317 -3.35849 -3.52628 -3.61158 -3.34031 -3.22458 -1.67037 
-1.60224 -1.42069 -1.54902 -1.81118 -2.6231 -2.33587 -1.75142 -2.86452 -2.5442 
-2.2361 -3.20939 -3.01116 -3.2841 -2.79465 -2.50215 -1.7936 -3.78378 -3.87682 
-3.63648 -3.74525 -3.58493 -3.71825 -3.90868 -4.10022 -3.61261 -3.46668 -3.06515 
-3.54538 -1.59808 -1.4481 -1.07904 -1.39093 -1.16734 -1.29231 -1.05985 -1.31583 
-2.26629 -1.7206 -2.55595 -2.16334 -2.29214 -2.17087 -2.00458 -1.97154 -3.26142 
-3.47265 -3.53359 -3.02115 -3.13579 -2.67755 -2.49742 -1.76631 -4.36173 -4.17429 
-3.92021 -3.89418 -4.17577 -4.1659 -4.19937 -4.29758 -3.87974 -3.67715 -3.62188 
-3.25542 -3.037 -2.57357 -3.82799 -1.39038 -1.26534 -0.977286 -0.801489 -1.04274 
-0.6856 -0.66306 -0.917827 -0.855436 -1.25961 -1.63553 -1.85932 -2.43729 -2.22686 
-2.47506 -1.94129 -1.88026 -2.0578 -1.81758 -3.88615 -4.14953 -2.81337 -2.86304 
-1.61108 -4.43214 -4.71882 -4.91634 -4.56826 -4.29856 -4.20219 -4.2038 -4.27582 
-4.18441 -4.65058 -4.41286 -4.7866 -4.15395 -3.53358 -3.63984 -3.97268 -3.29837 
-3.1572 -3.0318 -3.34364 -2.67309 -2.30698 -2.18606 -2.27111 -1.47802 -1.15177 
-0.767006 -0.61698 -0.411846 -0.382435 -0.487022 -0.424277 -0.552374 -0.453267 -1.11134 
-0.696837 -0.445625 -0.542022 -1.54005 -1.51657 -1.26791 -1.16761 -1.912 -1.68609 
-2.1491 -1.86269 -2.47086 -1.70793 -3.97121 -3.67037 -3.27275 -4.33663 -4.39322 
-2.83924 -4.5892 -4.82692 -5.16559 -5.12233 -5.00521 -5.49956 -4.886 -4.56506 
-4.20578 -4.56818 -4.65023 -5.206 -4.72782 -5.18565 -5.44187 -3.36709 -3.46976 
-3.19716 -3.74652 -4.16998 -3.89179 -2.97711 -2.94479 -2.72562 -2.79089 -2.32113 
-2.42624 -2.01881 -1.97305 -2.07123 -1.30179 -1.00192 -0.808569 -1.02156 -0.647608 
-0.585779 -2.77556e-17 0 0 -2.77556e-17 -0.273201 -0.298389 -0.211335 -0.178091 
-0.938398 -0.21367 -0.250684 -0.519773 -0.747137 -0.328803 -0.25254 -0.966941 -1.59341 
-1.64724 -1.90259 -2.34752 -2.24392 -1.76037 -1.46209 -4.18531 -4.69034 -3.53831 
-3.89077 -3.03321 -4.88488 -2.6547 -4.67705 -4.90306 -4.94906 -5.33341 -5.5416 
-5.35267 -4.68018 -5.07907 -5.71463 -5.64561 -5.58354 -5.82011 -3.4135 -2.78841 
-3.04211 -3.71822 -3.4685 -4.14292 -3.91831 -4.23428 -2.28552 -2.7083 -2.5302 
-2.42426 -2.37954 -2.36662 -1.67721 -1.72226 -2.06539 -1.61247 -1.23955 -1.02501 
-0.909538 -0.741881 5.55112e-17 -5.55112e-17 -5.55112e-17 -5.55112e-17 0 -2.77556e-17 2.77556e-17 
1.38778e-17 1.38778e-17 -1.38778e-17 -6.93889e-18 0 1.38778e-17 0 -1.38778e-17 -1.38778e-17 
2.77556e-17 -0.336016 -0.545635 -0.752655 -6.93889e-18 0 0 -0.914932 -1.35787 
-1.19463 -1.31931 -1.9361 -1.67977 -2.29528 -2.00776 -2.55867 -1.58246 -1.23782 
-1.15807 -4.10525 -4.55123 -4.75499 -5.1963 -5.13357 -3.27201 -3.74876 -3.6113 
-2.87275 -5.2903 -4.5642 -4.54818 -4.82117 -4.4746 -5.24441 -5.72969 -5.59936 
-5.18918 -5.55883 -5.88266 -6.02294 -6.01891 -5.90915 -3.27902 -2.70381 -2.51929 
-3.13074 -2.71175 -3.4118 -3.89906 -4.2756 -2.29805 -2.20198 -1.99502 -2.05512 
-1.42989 -1.99826 -2.37044 -2.12706 -1.38274 -1.77006 -1.47983 -1.83261 -1.02582 
-0.878866 -0.861493 -0.73317 0 0 0 -0.160928 -0.483074 -0.663793 
-0.691097 -1.08303 -0.829108 -1.09908 -0.942298 -1.17305 -1.65801 -1.49706 -2.66097 
-2.22978 -2.13984 -3.03871 -2.82028 -0.836732 -1.08116 -1.13553 -3.95428 -4.16737 
-4.31767 -4.70084 -5.31107 -5.3905 -5.93343 -5.51339 -5.4104 -3.22729 -3.58215 
-3.81657 -5.59205 -4.79214 -4.66813 -4.40907 -5.97816 -5.95073 -5.56138 -5.17205 
-6.09588 -5.83819 -6.36969 -6.47418 -6.07756 -2.24176 -3.10346 -2.77448 -2.5141 
-3.17044 -3.71586 -3.34573 -4.06861 -4.25349 -1.90895 -1.70684 -1.83164 -1.64968 
-1.59777 -1.53237 -1.2356 -1.23365 -1.96657 -1.71167 -1.2047 -1.31699 -1.5417 
-1.44574 -1.61718 -0.835716 -0.786807 5.55112e-17 -5.55112e-17 -1.38778e-17 -0.332481 1.38778e-17 
-0.11405 -0.523673 -0.281355 -0.432847 -0.5577 -0.663806 -1.03068 -0.748599 -1.51869 
-2.60477 -2.47737 -2.54238 -1.80135 -3.00668 -2.8331 -3.33318 -3.40187 5.55112e-17 
-5.55112e-17 -0.762713 -0.944041 -1.37009 -1.17935 -4.01361 -4.26264 -4.13978 -4.56986 
-4.757 -5.75138 -5.79439 -5.4421 -5.2446 -6.33844 -6.10497 -6.3544 -6.02967 
-3.6033 -3.85988 -5.10689 -4.76232 -4.5157 -4.21398 -6.31262 -5.74374 -5.41102 
-6.15377 -6.62457 -6.82834 -7.16319 -6.47017 -2.04803 -1.86613 -3.02555 -2.71763 
-2.35219 -3.39143 -2.97811 -3.83927 -3.64106 -1.51892 -1.58367 -1.4658 -1.33113 
-1.42486 -1.25981 -1.22157 -1.01686 -1.10797 -0.94799 -0.9714 -1.56802 -1.09371 
-1.19194 -0.808599 -0.878329 -1.47609 -5.55112e-17 -5.55112e-17 0 0 0 
-0.032132 -0.169184 -0.288824 -0.391482 -0.470053 -0.523146 -1.73517 -2.47096 -2.19351 
-3.07575 -3.03226 -3.20814 -3.83789 -3.7718 -3.33531 -3.74087 -5.55112e-17 0 
-0.379878 -0.724911 -1.32898 -1.30863 -0.882959 -4.0746 -4.30955 -4.53424 -5.2484 
-5.0833 -6.15302 -6.31173 -5.99563 -5.86553 -6.28285 -5.74155 -6.60894 -6.34911 
-6.5116 -6.4791 -6.8043 -6.86015 -6.69657 -3.92946 -5.72517 -5.73338 -5.2627 
-4.67853 -4.36713 -6.00411 -6.85961 -6.94912 -6.79531 -7.1924 -6.3453 -7.09488 
-7.24625 -7.47008 -7.29693 -7.5944 -1.69372 -2.24457 -2.00379 -1.59859 -1.45521 
-2.65959 -3.30127 -2.96328 -2.97684 -3.65903 -1.25399 -1.18534 -0.96903 -1.0514 
-1.14093 -0.989761 -1.0029 -0.811131 -0.809654 -0.402923 -0.530321 -0.64257 -0.830188 
-0.499127 -1.16851 -0.617416 3.46945e-18 0 3.46945e-18 0 0 -0.0749159 
-0.147848 -0.204598 -0.238748 -1.74372 -2.52043 -2.2717 -1.68239 -3.05629 -3.56124 
-3.59557 -3.95701 -4.10424 -4.05427 -3.69181 0 -0.476254 0 -0.261205 
-1.30951 -0.947361 -4.18066 -4.45065 -4.74515 -4.67526 -5.49934 -5.41241 -5.60075 
-4.99058 -5.35266 -6.64582 -7.34058 -6.78462 -5.90591 -6.44133 -6.96282 -5.79881 
-6.87507 -7.07784 -7.14494 -7.0193 -5.93132 -6.30777 -5.96425 -5.63659 -5.09404 
-5.23036 -4.77719 -4.1165 -4.45901 -6.34537 -7.31379 -6.6887 -7.35035 -7.62838 
-7.58783 -7.93098 -8.15414 -7.89885 -2.63621 -2.33412 -2.01162 -1.88202 -1.07159 
-0.876433 -1.35505 -2.78376 -3.15139 -3.20982 -2.97112 -3.80137 -0.687853 -0.777251 
-0.613928 -0.717612 -0.758151 -0.59512 -0.209735 -0.196362 -0.187421 5.20417e-18 -2.25514e-17 
-3.46945e-18 -2.77556e-17 -0.321967 -0.697488 -0.420052 -0.129105 -0.275502 -0.332069 -0.40847 
0 0 0 0 0 1.38778e-17 0 -2.77556e-17 -1.38778e-17 
1.38778e-17 -3.03337 -2.73992 -2.16312 -2.40226 -1.84005 -1.27944 -3.46891 -3.5894 
-4.10546 -3.97818 -4.43979 -4.02204 -0.38215 0 -0.0985529 -0.954412 -0.670775 
-4.82243 -5.16561 -5.69968 -5.60601 -7.41764 -7.20908 -7.35399 -7.64786 -6.19005 
-6.9187 -6.39865 -7.09728 -7.21471 -6.12324 -7.27356 -7.32303 -7.25479 -7.49901 
-7.34254 -6.59512 -6.39108 -6.15352 -6.02783 -5.62885 -4.86314 -5.13836 -4.31452 
-4.80285 -7.74284 -7.46962 -7.29397 -7.31314 -7.69654 -8.00927 -8.16018 -8.34031 
-8.32926 -8.50435 -8.05666 -2.63329 -2.6335 -2.51637 -2.38828 -2.0877 -1.11801 
-1.72707 -0.750339 -2.66481 -3.01696 -3.45318 -3.23935 -3.80724 -4.17504 -0.234323 
-0.343887 -0.441208 -0.479332 -0.362248 -0.00669161 -1.38778e-17 -1.38778e-17 8.67362e-18 6.93889e-18 
1.38778e-17 1.38778e-17 -0.428773 -0.160663 -6.93889e-18 0 1.38778e-17 1.04083e-17 -1.38778e-17 
-0.0517402 -0.132635 -2.98879 -3.22009 -2.89139 -2.19552 -1.77561 -3.24155 -3.03312 
-2.70183 -2.83875 -1.4404 -3.75113 -3.94553 -4.48177 -4.28988 -4.37168 -4.70942 
-0.483779 -0.185519 1.38778e-17 2.77556e-17 0 -1.38778e-17 -0.946924 -1.22346 -0.866214 
-0.499163 -5.13979 -5.51798 -5.96397 -5.63668 -5.8654 -7.60664 -7.74949 -7.4713 
-7.63057 -7.8103 -7.89753 -8.05032 -7.02064 -6.69654 -7.37765 -7.14286 -7.5671 
-6.27625 -7.60722 -7.7299 -7.73894 -7.90257 -7.66566 -6.50282 -6.8263 -7.14309 
-6.86613 -6.45014 -6.21566 -6.11842 -5.93463 -5.78306 -5.51011 -5.03982 -5.4344 
-5.43088 -4.63865 -4.23491 -8.06095 -8.21989 -7.47649 -7.81925 -8.41208 -8.57714 
-8.73548 -8.58965 -8.73819 -8.2059 -2.73438 -2.45703 -2.21032 -2.13891 -0.976697 
-1.29673 -1.59906 -1.65482 -0.505463 -2.91977 -3.99759 -3.81837 -3.70863 -3.26018 
-2.82691 -2.82754 -2.97257 1.38778e-17 1.38778e-17 -1.38778e-17 -0.0778617 -0.163779 -0.191873 
-0.109453 -6.93889e-18 0 0 -8.67362e-19 -8.67362e-19 -0.261681 1.38778e-17 0 
6.93889e-18 6.93889e-18 1.38778e-17 -3.2845 -1.95006 -1.87796 -2.3645 -1.58977 -3.46349 
-3.63637 -3.62508 -3.58918 -3.24868 -2.81616 -2.73283 -3.24101 -3.54221 -4.03138 
-3.92956 -4.25776 -5.02486 -4.75663 -4.65125 -5.05872 -1.38778e-17 -0.224403 0 
-0.681506 -1.51284 -1.10703 -1.59461 -5.37621 -5.4454 -6.18993 -5.81485 -5.7404 
-7.86191 -8.00021 -8.14297 -7.97319 -7.86172 -8.2058 -8.36421 -6.90954 -6.55954 
-6.79085 -7.46666 -7.65344 -7.11224 -7.80458 -7.93473 -8.03092 -8.14544 -6.8384 
-7.41093 -6.98041 -6.39712 -6.61775 -6.28246 -6.08995 -5.81773 -5.37011 -4.90305 
-5.64152 -5.82752 -4.58754 -4.17055 -4.36172 -8.32851 -8.45139 -8.61431 -7.9219 
-7.84618 -8.78115 -9.12398 -9.00172 -8.92146 -8.59848 -8.60254 -8.23907 -8.51065 
-2.70647 -2.52143 -2.54991 -1.47662 -0.822666 -2.02276 -1.54196 -0.421227 -4.126 
-3.78141 -3.67482 -3.44457 -3.27489 -3.17021 3.46945e-18 6.93889e-18 0 -1.38778e-17 
0 0 -1.38778e-17 0 -2.77556e-17 -0.193831 -1.87509 -2.48371 -2.58598 
-3.70222 -3.84142 -3.99262 -3.87075 -2.89631 -3.28973 -2.82072 -3.65867 -3.53815 
-3.93094 -4.27285 -5.1731 -4.92585 -5.26833 -5.3951 -4.51985 -0.499612 0 
-1.38778e-17 -0.161691 -0.985748 -1.21126 -1.62092 -1.35061 -5.66638 -6.47641 -6.1091 
-6.32727 -5.97427 -6.02903 -8.76213 -8.24925 -8.78789 -8.82698 -6.75795 -7.38019 
-7.73122 -8.04497 -7.03361 -8.27164 -8.6345 -8.6194 -8.8681 -8.99559 -7.4157 
-7.20574 -6.8651 -7.00328 -6.71542 -7.08868 -6.21565 -5.29638 -5.67555 -4.98165 
-4.51752 -8.60033 -8.69924 -8.83754 -9.00091 -7.77719 -7.52645 -8.04193 -9.55414 
-9.49622 -9.2351 -8.84896 -9.17226 -9.09837 -8.77894 -8.16753 -8.4233 -8.21944 
-8.7872 -8.68424 -3.06729 -2.66387 -2.08362 -1.50489 -1.10156 -0.795118 -1.86545 
-0.621036 -0.229433 -4.12785 -4.00716 -3.46019 0 -1.59412 -1.98062 -2.72489 
-4.30817 -4.41794 -3.25414 -3.68424 -3.94445 -4.01975 -4.28743 -5.25154 -5.11225 
-5.25849 -5.54065 -5.58561 -5.5982 -5.62793 -0.605291 1.38778e-17 -0.379855 1.38778e-17 
1.38778e-17 -0.279533 -0.830507 -1.25661 -1.32966 -6.1821 -6.6897 -5.91642 -6.17441 
-6.26707 -9.00195 -9.25821 -9.13144 -9.39316 -8.74954 -9.20833 -9.41631 -9.12659 
-7.3411 -7.627 -7.83886 -7.96939 -8.18137 -8.43249 -8.52966 -6.95125 -7.14534 
-8.88832 -9.0004 -9.37187 -9.37413 -7.6815 -7.18897 -7.41465 -6.81733 -7.49745 
-6.6554 -7.33554 -6.30232 -5.68838 -6.63467 -5.25221 -5.56429 -5.22611 -4.58288 
-4.52327 -4.71923 -8.9039 -9.16602 -9.24725 -9.21203 -7.58518 -7.80669 -9.57778 
-10.0116 -10.2881 -10.2721 -9.34 -9.94484 -9.14012 -8.11917 -8.60532 -8.95423 
-3.23348 -2.58211 -2.39283 -1.50075 -1.34925 -1.00787 -2.04375 -1.57158 -0.344839 
-0.438226 -0.681802 -0.118944 -0.039696 -1.38778e-17 1.38778e-17 -4.01777 -3.73251 -3.97904 
-2.13792 -3.31013 -3.22075 -2.7268 -4.96782 -4.45257 -4.81572 -4.63889 -5.17061 
-3.68154 -4.05201 -4.32935 -5.57721 -5.58696 -5.56721 -5.88107 -5.84817 -0.807702 
-0.612706 6.93889e-18 -0.130756 -1.09762 -0.953837 -0.906297 -0.934527 -6.4834 -6.60328 
-6.89632 -6.1872 -6.50829 -9.50214 -9.63215 -9.53173 -9.55475 -9.42954 -9.76524 
-7.52873 -7.82406 -8.16174 -8.19996 -8.41571 -8.60587 -8.68612 -8.78335 -7.16966 
-7.23221 -9.13824 -9.25261 -9.37305 -9.62502 -9.74884 -9.87147 -9.62291 -9.74677 
-7.78128 -7.26546 -7.61597 -5.91399 -6.43183 -6.2791 -6.86934 -5.61379 -5.23133 
-5.31559 -5.17916 -4.37923 -4.38919 -4.44765 -4.7942 -9.7346 -10.3477 -10.5239 
-10.5877 -10.2929 -10.5293 -9.50274 -9.7444 -10.1772 -9.90625 -10.0687 -9.29019 
-9.14346 -8.31855 -8.86416 -8.58654 -9.15843 -8.90072 -3.59733 -3.0631 -2.49449 
-2.75404 -3.0695 -1.56217 -1.28874 -1.00871 -2.10329 -2.13677 -0.140431 -0.142301 
-0.719093 -0.292247 0 -3.46945e-18 0 0 0 -4.04021 -3.96017 
-2.02108 -1.58054 -1.46415 -2.43519 -2.23539 -3.64885 -3.54767 -3.2546 -2.96261 
-2.8206 -5.41316 -5.32956 -5.4385 -5.10592 -4.8908 -5.70033 -4.01662 -4.38599 
-5.85804 -5.89574 -6.31898 -6.58242 -6.62431 -0.806436 -0.467975 0 0 
-0.0158011 -0.27319 -0.459304 -0.868981 -0.544681 -6.83913 -6.82947 -6.79335 -9.87123 
-9.99825 -9.90004 -10.1289 -7.40861 -7.75254 -8.07982 -8.33454 -8.66963 -9.02384 
-9.03177 -7.15194 -9.38498 -9.50293 -9.98266 -9.81148 -10.0771 -10.1164 -10.2317 
-9.9906 -10.1701 -8.04451 -8.22702 -7.57012 -7.28529 -7.75412 -6.2131 -5.85984 
-6.53923 -6.41814 -6.82439 -6.97959 -5.56418 -5.55146 -5.53873 -5.16742 -5.28268 
-4.40086 -4.59182 -4.95171 -10.1477 -10.1967 -10.4231 -10.9752 -11.1137 -11.0727 
-10.9147 -10.6372 -9.66541 -10.4836 -9.91624 -9.59229 -9.48285 -9.64718 -9.42953 
-8.59808 -9.00681 -8.22779 -8.10548 -7.93833 -4.20163 -4.07216 -3.59599 -3.40502 
-2.71292 -3.11065 -3.30908 -1.45354 -1.94416 -1.6902 -1.37272 -0.984053 -2.64085 
-2.34698 -1.38778e-17 -1.38778e-17 0 6.93889e-18 -1.38778e-17 -6.93889e-18 -0.193573 -0.507042 
-1.08086 -1.38778e-17 -2.77556e-17 -1.8624 -2.00126 -2.19739 -1.58968 -2.42755 -3.644 
-4.01682 -3.72704 -3.22665 -3.07217 -2.83993 -2.51495 -5.63757 -5.75788 -5.46646 
-5.28785 -4.72884 -4.37918 -5.06168 -6.14393 -5.96299 -6.54621 -6.74796 -7.01031 
-7.04396 0 0 -0.0511714 -0.432715 -0.31155 -1.20291 -0.295593 -7.07108 
-7.64099 -7.34137 -7.6914 -8.00799 -8.5188 -8.58907 -8.92184 -9.05227 -9.53366 
-9.43189 -9.52589 -9.2777 -9.63284 -10.2393 -10.2644 -10.2447 -9.88327 -10.3558 
-10.4691 -10.4061 -10.5828 -10.8821 -7.78927 -7.84572 -7.51072 -7.19358 -6.1531 
-5.77119 -6.72124 -5.85769 -5.52493 -5.29781 -5.52716 -5.51442 -4.39799 -4.62444 
-4.9489 -5.16135 -10.9566 -11.2665 -11.1453 -10.8627 -10.6117 -10.2054 -10.0568 
-9.41517 -9.55138 -9.07753 -8.90114 -8.73164 -8.33763 -7.98706 -7.62004 -7.64681 
-7.50439 -4.17784 -3.98914 -3.67221 -3.09947 -3.2145 -3.5772 -3.10464 -3.58002 
-1.95226 -1.75243 -1.15016 -1.3306 -1.60352 -2.65842 -3.08327 -2.47172 -2.19249 
-1.38778e-17 -0.135944 -0.435893 -0.741369 -1.49106 -1.41129 -1.07499 -0.962056 -1.79509 
-1.99272 -2.41439 -2.26029 -1.58934 -1.37424 -4.38445 -4.1851 -4.15054 -3.87235 
-3.34039 -3.24262 -3.1096 -2.69889 -5.94603 -5.80262 -5.41487 -5.68828 -4.73299 
-5.07053 -4.89813 -6.31428 -6.26335 -6.9311 -6.78796 -6.88389 -7.32508 -7.31369 
-7.17524 -7.20971 -7.33169 -7.31804 -6.93889e-18 -0.0508322 6.93889e-18 -0.179288 -0.913911 
-0.777943 -0.290028 -0.0723385 -0.074104 -7.60441 -7.89737 -7.51816 -7.95801 -8.4583 
-8.71268 -8.77294 -8.84235 -9.17083 -9.29947 -9.71406 -9.92702 -9.7771 -10.4776 
-10.6025 -10.769 -10.1335 -10.3828 -10.7021 -10.7008 -10.8224 -10.9337 -11.0525 
-11.3048 -11.3851 -11.3558 -7.26331 -6.91493 -6.70429 -6.36137 -6.05378 -6.50461 
-6.08636 -5.80587 -5.46989 -5.78654 -4.74066 -4.7696 -5.09688 -11.3759 -10.9788 
-10.853 -10.5873 -10.2969 -10.0541 -9.96438 -9.12039 -9.34108 -9.32056 -9.35805 
-9.66854 -8.87539 -8.75874 -8.36901 -8.52936 -8.41203 -8.36005 -7.58617 -7.8018 
-7.36423 -7.32039 -7.09977 -6.7929 -4.89677 -4.63084 -4.24528 -3.98184 -3.59749 
-3.25377 -3.57843 -3.57619 -1.92361 -1.84713 -2.54312 -3.05045 -3.06763 -2.50423 
-2.02354 -2.30828 0 0 -0.434908 -0.0894098 -0.200199 -0.730499 -1.70522 
-1.36027 -1.6581 -1.03257 -1.82809 -2.41971 -2.01273 -2.24118 -1.59487 -1.3893 
-1.17951 -4.38784 -4.43363 -4.2792 -3.67305 -3.97186 -3.25756 -3.41458 -3.09436 
-2.83707 -6.13905 -5.37031 -5.59907 -4.64044 -5.15121 -4.91372 -6.64917 -6.43796 
-7.12015 -7.38423 -7.21762 -7.22162 -7.26608 -6.83709 -7.58265 -7.71121 -7.60677 
-1.38778e-17 -1.38778e-17 0 -0.0383453 -1.10911 -0.752881 -0.546706 0 -1.38778e-17 
-0.321371 -0.0501739 -6.93889e-18 6.93889e-18 0 0 -7.5842 -8.00544 -8.40864 
-8.98345 -9.02339 -8.66319 -9.09265 -9.3775 -9.60124 -9.83083 -10.3281 -10.1754 
-10.0276 -11.4231 -10.9675 -10.9523 -10.2774 -10.6303 -11.1637 -11.2811 -11.5016 
-11.6388 -6.81353 -6.44487 -5.88316 -6.12626 -5.9543 -6.23937 -6.16356 -6.16473 
-5.96305 -5.84944 -6.03282 -5.53018 -4.9814 -5.44406 -4.89291 -5.05567 -11.1915 
-10.8583 -10.5501 -10.2597 -9.91354 -9.08319 -8.81411 -9.23194 -9.62318 -8.64511 
-7.95528 -7.85424 -8.20302 -8.5083 -8.19794 -7.33432 -7.21831 -6.98715 -7.57557 
-6.98171 -6.92891 -6.4484 -6.99849 -6.52766 -4.28611 -4.30762 -4.25056 -4.05321 
-3.98043 -3.87045 -3.58954 -3.48905 -2.03194 -2.07305 -3.54642 -3.37015 -3.04913 
-2.52217 -2.91542 -6.93889e-18 -0.480371 -0.765356 0 -6.93889e-18 -0.365639 -0.555385 
-1.0562 -1.82543 -1.33987 -1.63837 -1.9445 -2.22653 -1.77529 -1.63065 -2.03497 
-2.4089 -2.48712 -1.2362 -1.20433 -1.18183 -4.73031 -4.59247 -4.36414 -3.66256 
-4.01052 -3.26797 -3.33576 -2.9798 -2.82744 -5.80622 -5.49725 -5.10654 -6.55967 
-6.1102 -5.92522 -7.42852 -7.51583 -7.49308 -7.57788 -7.36552 -6.98144 -7.68552 
-6.79679 -7.97496 -7.84396 -8.11741 -8.0173 -7.69865 -7.91347 0 0 
0 -0.842673 -0.754809 -0.575054 1.38778e-17 3.46945e-18 0 -1.38778e-17 -0.332757 
6.93889e-18 -7.98096 -8.56293 -9.18489 -8.91433 -9.4316 -9.42898 -9.87147 -10.1177 
-10.4249 -10.253 -10.5759 -10.5263 -11.1939 -11.4343 -11.5346 -11.3932 -11.688 
-11.8688 -11.7735 -10.8756 -11.3299 -10.7728 -11.6932 -10.8673 -11.7271 -11.3411 
-11.9646 -6.10302 -5.90288 -5.32363 -5.43847 -5.38463 -5.88092 -5.77327 -5.9961 
-5.77947 -4.99149 -4.6714 -4.78989 -5.53144 -5.08193 -10.4976 -10.0898 -8.72515 
-8.6372 -9.41228 -8.7167 -8.83666 -9.35126 -8.47593 -7.61161 -7.83737 -8.11136 
-8.02749 -8.02414 -6.91955 -7.16465 -6.64341 -7.22134 -6.34123 -6.08415 -4.1643 
-3.81503 -3.56131 -3.38288 -3.66008 -3.31366 -3.83181 -2.37326 -1.998 -2.2944 
-3.46015 -3.52104 -3.35529 -3.19196 -3.09572 -3.36222 -2.60123 -0.832766 -1.11561 
0 -0.439472 -0.170615 -0.643722 -0.0847825 -0.918265 -1.23777 -1.48428 -1.65159 
-2.09904 -2.19421 -1.943 -2.24058 -2.52957 -1.42281 -1.72119 -2.16644 -2.40296 
-2.67966 -1.09252 -1.00555 -4.86092 -4.3722 -4.01379 -4.70196 -4.65877 -3.51301 
-5.20892 -5.65027 -6.46307 -6.08043 -8.0558 -7.98184 -8.11887 -7.55394 -7.49096 
-7.09646 -6.90213 -6.77855 -7.83752 -8.10133 -8.35853 -8.36035 -8.38592 -8.54175 
-8.22781 -0.809802 -0.39367 -0.356493 -0.792402 0 -8.61132 -8.86683 -8.88087 
-9.46046 -9.25485 -9.41204 -9.71837 -9.76781 -10.013 -10.0816 -10.2931 -10.6726 
-10.4853 -10.7282 -10.8196 -11.7892 -11.886 -12.1469 -11.9651 -12.1768 -11.0881 
-11.1187 -11.2231 -11.5679 -10.4352 -10.7572 -11.1647 -11.9068 -11.5031 -11.3665 
-5.08355 -5.70173 -5.27863 -5.16243 -5.04552 -4.95733 -5.52906 -5.27178 -5.0042 
-4.41302 -3.94279 -4.4904 -3.77304 -3.61531 -4.63188 -10.3489 -10.0005 -9.67643 
-8.42699 -8.36459 -8.86255 -8.49992 -9.50773 -9.06264 -7.37017 -7.85157 -7.53042 
-7.45473 -7.45494 -7.71361 -8.04144 -6.8139 -6.47636 -6.43975 -6.85629 -6.09983 
-5.66308 -5.83177 -3.95619 -3.4659 -3.4137 -2.90307 -2.87717 -2.77591 -3.34696 
-2.85482 -2.64774 -2.6582 -2.68189 -2.54949 -3.07609 -2.94747 -2.79605 -3.14335 
-3.01795 -2.98475 -1.15718 -1.26181 0 -0.696875 -0.23242 0 0 
-1.38778e-17 0 -0.65187 0 -0.745968 -1.79503 -1.21774 -1.5465 -1.96229 
-2.38545 -2.08403 -2.81577 -2.58848 -1.32969 -1.76977 -1.45746 -2.1007 -2.15414 
-2.30907 -2.64606 -3.05629 -0.820194 -1.10755 -0.893865 -4.8739 -4.37471 -3.85184 
-4.872 -4.71364 -5.3315 -5.13031 -5.71212 -6.73309 -6.35502 -6.13723 -8.43726 
-8.28969 -8.2466 -8.21892 -8.50159 -8.47939 -7.807 -7.6999 -7.3655 -7.37431 
-7.0479 -6.79226 -8.74304 -8.60976 -8.54549 -8.90042 -9.03175 -8.99862 -0.456483 
-0.0764471 0 -1.38778e-17 -0.290055 1.38778e-17 -8.98415 -9.11447 -9.65912 -9.35977 
-9.60966 -9.90355 -9.95272 -10.1946 -10.2553 -10.3252 -10.4371 -10.9166 -10.7653 
-11.0131 -11.8045 -11.943 -12.3107 -12.2318 -12.4402 -12.1083 -11.5171 -11.3609 
-11.3034 -11.4636 -11.0565 -10.7542 -10.3407 -10.5492 -11.8172 -11.6052 -11.4761 
-11.1386 -10.9761 -10.9283 -10.939 -4.77925 -4.3721 -4.58735 -4.88488 -5.1012 
-4.95977 -4.60151 -4.62814 -4.23579 -3.89288 -3.92584 -3.52738 -2.93562 -3.45224 
-3.08455 -3.28431 -3.4707 -10.2225 -9.85744 -9.58372 -8.76615 -7.72742 -8.10224 