# vtk DataFile Version 4.2
3D Slicer output. SPACE=LPS
ASCII
DATASET POLYDATA
POINTS 3216 float
-23.0999 -30.4781 -0.49643 -23.0938 -30.3573 -0.527096 -22.9217 -30.4483 -0.49643 
-23.1046 -30.534 -0.476682 -23.0884 -30.2897 -0.548563 -22.9217 -30.2897 -0.546903 
-22.7334 -30.2897 -0.49643 -22.9217 -30.5897 -0.445813 -22.6217 -30.5897 -0.355551 
-23.1081 -30.5897 -0.458448 -23.0798 -30.1316 -0.573817 -22.9217 -29.9897 -0.609989 
-22.6217 -30.157 -0.49643 -22.6217 -30.2897 -0.456415 -23.1388 -30.8897 -0.31974 
-23.1301 -30.7982 -0.361972 -22.9217 -30.8897 -0.305543 -22.6217 -30.9063 -0.19643 
-22.3217 -30.7035 -0.19643 -22.3217 -30.5897 -0.251898 -22.3217 -30.2897 -0.358414 
-23.0676 -29.9897 -0.604149 -22.6217 -29.9897 -0.538773 -23.0571 -29.8542 -0.616877 
-22.9217 -29.6897 -0.642804 -22.6217 -29.6897 -0.585198 -22.4972 -29.9897 -0.49643 
-23.144 -30.9333 -0.291817 -22.9217 -31.0582 -0.19643 -22.6217 -31.1897 -0.0115452 
-22.3217 -30.8897 -0.0986294 -22.183 -30.5897 -0.19643 -22.0217 -30.4275 -0.19643 
-22.0217 -30.2897 -0.246094 -22.3217 -29.9897 -0.433505 -22.0217 -29.9897 -0.321435 
-23.0426 -29.6897 -0.635727 -23.0324 -29.5789 -0.63954 -22.9217 -29.3897 -0.660291 
-22.6217 -29.3897 -0.605175 -22.3217 -29.6897 -0.486243 -22.3217 -29.5788 -0.49643 
-23.1684 -31.092 -0.19643 -23.1718 -31.1143 -0.180212 -22.9217 -31.1897 -0.0988621 
-22.6217 -31.3448 0.10357 -22.3217 -31.217 0.10357 -22.2698 -31.1897 0.10357 
-22.0217 -31.0396 0.10357 -22.0217 -30.8897 0.0142224 -22.0217 -30.5897 -0.128945 
-21.9085 -30.2897 -0.19643 -21.7217 -30.5897 0.000383137 -22.0217 -29.6897 -0.367276 
-21.7217 -29.9897 -0.188117 -23.0154 -29.3897 -0.652063 -22.9217 -29.0897 -0.641395 
-22.6217 -29.0897 -0.586328 -22.3044 -29.3897 -0.49643 -22.3217 -29.2051 -0.49643 
-22.0217 -29.3897 -0.383368 -23.1856 -31.1897 -0.12896 -23.1907 -31.2149 -0.108622 
-22.9217 -31.4333 0.10357 -22.6217 -31.4897 0.227959 -22.3217 -31.4897 0.315227 
-22.0217 -31.1897 0.204506 -21.8181 -30.8897 0.10357 -21.7217 -31.1897 0.344386 
-21.7217 -30.2897 -0.109999 -21.7217 -30.8062 0.10357 -21.5055 -30.5897 0.10357 
-21.4217 -30.4958 0.10357 -21.7217 -29.6897 -0.232022 -21.7217 -29.3897 -0.250245 
-21.6478 -29.6897 -0.19643 -21.4217 -29.9897 -0.0508179 -22.9936 -29.1617 -0.639612 
-22.9865 -29.0897 -0.633995 -22.9217 -28.7897 -0.583495 -22.3217 -29.0897 -0.485141 
-22.6217 -28.7897 -0.537618 -22.4786 -28.7897 -0.49643 -22.0217 -29.0897 -0.37213 
-23.2217 -31.3368 -0.005792 -23.2217 -31.4897 0.126411 -22.9217 -31.4897 0.158771 
-22.9217 -31.7076 0.40357 -22.6217 -31.6684 0.40357 -22.3217 -31.5903 0.40357 
-22.0746 -31.4897 0.40357 -22.0217 -31.4624 0.40357 -21.7217 -31.2746 0.40357 
-21.7217 -30.8897 0.149646 -21.5947 -31.1897 0.40357 -21.4217 -30.2897 0.0227637 
-21.4217 -30.8897 0.292888 -21.4217 -30.5897 0.14652 -21.2544 -30.2897 0.10357 
-21.1217 -30.5897 0.293242 -21.6099 -29.3897 -0.19643 -21.7217 -29.0897 -0.241043 
-21.6327 -29.0897 -0.19643 -21.4217 -29.6897 -0.0870289 -21.1217 -30.0511 0.10357 
-21.0957 -29.9897 0.10357 -21.1217 -29.6897 0.0509357 -22.964 -28.832 -0.586833 
-22.96 -28.7897 -0.578649 -22.9584 -28.7558 -0.572845 -22.9217 -28.4897 -0.521302 
-22.6217 -28.6049 -0.49643 -22.7589 -28.4897 -0.49643 -22.3217 -28.7897 -0.443406 
-22.3217 -28.4897 -0.366497 -22.0217 -28.7897 -0.327316 -21.7217 -28.85 -0.19643 
-23.2562 -31.4735 0.123784 -23.3082 -31.6666 0.346234 -23.2598 -31.4897 0.136358 
-23.2217 -31.7382 0.40357 -22.9217 -31.7897 0.502528 -23.2217 -31.7897 0.465922 
-22.6217 -31.7897 0.538892 -22.3217 -31.7897 0.608795 -22.0217 -31.7979 0.70357 
-21.7217 -31.4897 0.560247 -21.4217 -31.0733 0.40357 -21.4217 -31.1897 0.482492 
-21.1902 -30.8897 0.40357 -21.1217 -30.2897 0.169991 -21.1217 -30.8251 0.40357 
-20.8863 -30.5897 0.40357 -20.8217 -30.5214 0.40357 -20.8217 -30.2897 0.316639 
-21.4217 -29.3897 -0.104471 -21.4217 -29.0897 -0.0887147 -21.4217 -28.7897 -0.0259851 
-21.1217 -29.3897 0.0348238 -20.8217 -29.9897 0.238929 -21.011 -29.6897 0.10357 
-22.9457 -28.4916 -0.519311 -22.9457 -28.4897 -0.519226 -22.9217 -28.4183 -0.49643 
-22.6217 -28.4897 -0.463134 -22.9217 -28.1897 -0.399453 -22.6217 -28.1897 -0.338161 
-22.0217 -28.4897 -0.239782 -22.3217 -28.1897 -0.241936 -22.0217 -28.3818 -0.19643 
-22.2146 -28.1897 -0.19643 -21.7217 -28.7897 -0.179754 -21.9384 -28.4897 -0.19643 
-23.3192 -31.7267 0.40357 -23.3252 -31.7596 0.444396 -23.2217 -31.9816 0.70357 
-22.9217 -31.9519 0.70357 -23.3309 -31.9117 0.633925 -23.3282 -31.7897 0.482413 
-22.6217 -31.9258 0.70357 -22.3217 -31.8722 0.70357 -21.7217 -31.6724 0.70357 
-22.1422 -32.0897 1.00357 -22.0217 -32.0897 1.04406 -21.7217 -31.7897 0.809573 
-21.4217 -31.4955 0.70357 -21.1217 -31.1897 0.614036 -21.1217 -31.3224 0.70357 
-21.1217 -30.8897 0.436228 -20.8217 -30.8897 0.574195 -20.8217 -30.5897 0.432462 
-20.6398 -30.2897 0.40357 -20.5217 -30.5897 0.553908 -21.1217 -29.0897 0.0552805 
-21.1217 -28.8594 0.10357 -21.4217 -28.4897 0.0694921 -21.7217 -28.4897 -0.0842228 
-21.1217 -28.7897 0.123469 -21.3587 -28.4897 0.10357 -20.9858 -29.3897 0.10357 
-21.0294 -29.0897 0.10357 -20.8217 -29.6897 0.192869 -20.5217 -30.0915 0.40357 
-20.4694 -29.9897 0.40357 -20.5217 -29.6897 0.330751 -22.9441 -28.4239 -0.49643 
-22.9447 -28.4008 -0.487804 -22.953 -28.1897 -0.397835 -22.9217 -27.8897 -0.256056 
-22.6217 -27.9119 -0.19643 -22.6618 -27.8897 -0.19643 -22.3217 -28.1003 -0.19643 
-22.0217 -28.1897 -0.109525 -22.3217 -27.8897 -0.0735788 -23.3298 -31.9605 0.70357 
-23.3053 -32.0432 0.795152 -23.2217 -32.0897 0.830569 -22.9217 -32.0897 0.86788 
-22.6217 -32.0897 0.905729 -22.3217 -32.0897 0.957468 -21.4217 -31.7897 0.945984 
-22.3217 -32.1267 1.00357 -22.3217 -32.3458 1.30357 -22.0217 -32.2722 1.30357 
-21.7217 -32.0897 1.1692 -21.7217 -31.964 1.00357 -21.1217 -31.4897 0.822296 
-20.9112 -31.1897 0.70357 -20.8217 -31.4897 0.933094 -20.8217 -31.1285 0.70357 
-20.5217 -30.9154 0.70357 -20.5217 -30.2897 0.457289 -20.2217 -30.6703 0.70357 
-20.2217 -30.5897 0.669961 -20.2217 -30.2897 0.575387 -20.8217 -28.7897 0.272189 
-21.4217 -28.4027 0.10357 -21.7217 -28.1897 0.0386515 -21.598 -28.1897 0.10357 
-21.1217 -28.4897 0.227715 -20.8217 -29.3897 0.186164 -20.8217 -29.0897 0.211282 
-20.5217 -29.3897 0.323987 -20.2217 -29.9897 0.511112 -20.3699 -29.6897 0.40357 
-22.99 -27.958 -0.285184 -23.0029 -27.8897 -0.255813 -22.9217 -27.7844 -0.19643 
-22.6217 -27.5897 0.0370154 -22.0217 -27.8897 0.0636926 -21.7217 -28.0711 0.10357 
-21.9423 -27.8897 0.10357 -22.3217 -27.637 0.10357 -22.4284 -27.5897 0.10357 
-22.0217 -27.8264 0.10357 -23.2906 -32.0897 0.865021 -23.2217 -32.1936 0.94836 
-23.1889 -32.2256 0.988745 -23.1668 -32.2379 1.00357 -22.9217 -32.2181 1.00357 
-22.6217 -32.1706 1.00357 -21.4217 -31.8459 1.00357 -21.2788 -31.7897 1.00357 
-22.4946 -32.3897 1.30357 -22.3217 -32.3897 1.36406 -21.7217 -32.1838 1.30357 
-22.0217 -32.3897 1.47777 -21.4217 -32.0897 1.30703 -21.1217 -31.7224 1.00357 
-20.8217 -31.5875 1.00357 -20.8217 -31.1897 0.739321 -20.612 -31.4897 1.00357 
-20.5217 -31.1897 0.848815 -20.2217 -30.8897 0.800392 -20.1415 -30.5897 0.70357 
-19.9217 -30.5897 0.792152 -19.9217 -30.3043 0.70357 -19.9217 -29.9897 0.634232 
-20.8217 -28.4425 0.40357 -20.5217 -28.8637 0.40357 -20.5217 -28.7897 0.424941 
-20.783 -28.4897 0.40357 -21.4217 -28.1897 0.197921 -21.7217 -27.8897 0.217287 
-21.1217 -28.1897 0.360983 -21.0449 -28.1897 0.40357 -20.5217 -29.0897 0.35312 
-20.3601 -29.3897 0.40357 -20.4193 -29.0897 0.40357 -20.2217 -29.6897 0.472184 
-19.9217 -29.6897 0.604734 -23.0231 -27.82 -0.216277 -23.0376 -27.7785 -0.19643 
-23.0845 -27.6788 -0.131192 -22.9217 -27.5897 -0.0461034 -22.6217 -27.5181 0.10357 
-22.0217 -27.5897 0.287834 -22.3217 -27.5897 0.146908 -22.3217 -27.3554 0.40357 
-22.5449 -27.2897 0.40357 -22.9217 -32.3405 1.1319 -22.871 -32.3527 1.15302 
-22.6217 -32.3824 1.25378 -22.5599 -32.4076 1.30357 -21.1217 -32.0109 1.30357 
-21.1217 -31.7897 1.06526 -22.5159 -32.4296 1.3539 -22.4519 -32.4344 1.37758 
-22.3217 -32.436 1.42519 -22.1178 -32.4478 1.51809 -21.7217 -32.3963 1.60357 
-21.4217 -32.3237 1.60357 -22.0217 -32.4604 1.5748 -21.9815 -32.47 1.60357 
-21.1217 -32.0897 1.39388 -20.8217 -31.7897 1.16554 -20.5217 -31.4897 1.03249 
-20.5217 -31.7897 1.25543 -20.2217 -31.2884 1.00357 -20.2217 -31.1897 0.948288 
-20.0701 -31.1897 1.00357 -19.9217 -30.8897 0.911657 -19.6217 -30.5897 0.91147 
-19.6217 -30.2897 0.824233 -19.7747 -29.9897 0.70357 -20.8217 -28.1897 0.519479 
-20.5217 -28.4897 0.52901 -20.2217 -28.7897 0.561198 -21.4217 -27.8897 0.373222 
-21.1217 -28.1111 0.40357 -21.3658 -27.8897 0.40357 -21.7217 -27.6349 0.40357 
-21.7975 -27.5897 0.40357 -20.2217 -29.3897 0.469802 -20.2217 -29.0897 0.498839 
-19.9217 -29.3897 0.602342 -19.7193 -29.6897 0.70357 -23.1247 -27.5897 -0.0664753 
-22.9217 -27.4352 0.10357 -22.9217 -27.2897 0.283083 -22.6217 -27.2897 0.37694 
-22.0217 -27.4744 0.40357 -22.3217 -27.2897 0.487361 -22.3217 -27.1504 0.70357 
-22.6217 -27.0749 0.70357 -20.8217 -31.94 1.30357 -20.8217 -32.0897 1.45468 
-21.8162 -32.5652 1.77634 -21.7536 -32.6555 1.90357 -21.7217 -32.6472 1.90357 
-21.4217 -32.3897 1.67916 -21.1217 -32.2685 1.60357 -20.5217 -31.8475 1.30357 
-20.3684 -31.7897 1.30357 -20.2217 -31.4897 1.1278 -19.9217 -31.0809 1.00357 
-19.9217 -31.1897 1.05872 -19.9217 -31.4897 1.23146 -19.7004 -30.8897 1.00357 
-19.6217 -30.8154 1.00357 -19.4205 -30.5897 1.00357 -19.3217 -30.4418 1.00357 
-19.3217 -30.2897 0.96302 -19.6217 -29.9897 0.774433 -19.3217 -29.9897 0.916258 
-20.8217 -27.8979 0.70357 -20.8331 -27.8897 0.70357 -21.1217 -27.8897 0.541344 
-20.5217 -28.1897 0.670803 -20.5217 -28.1341 0.70357 -20.2217 -28.4897 0.6618 
-20.2217 -28.3977 0.70357 -20.4532 -28.1897 0.70357 -19.9217 -28.8224 0.70357 
-19.9217 -29.0897 0.636724 -20.1393 -28.4897 0.70357 -21.4217 -27.5897 0.625851 
-21.2951 -27.5897 0.70357 -21.7217 -27.5897 0.446236 -21.7217 -27.3709 0.70357 
-19.7132 -29.3897 0.70357 -19.7866 -29.0897 0.70357 -19.6217 -29.6897 0.751123 
[...]
POINT_DATA 3216
SCALARS scalars float
LOOKUP_TABLE default
0 0 -0.186147 -1.38778e-17 1.38778e-17 -0.173176 -0.356927 -0.19873 -0.49793 
1.38778e-17 0 -0.147159 -0.460148 -0.471339 -1.38778e-17 0 -0.228613 -0.534921 
-0.823604 -0.810347 -0.782893 0 -0.446447 -1.38778e-17 -0.120675 -0.421981 -0.575308 
1.38778e-17 -0.249641 -0.579577 -0.847139 -0.957429 -1.11312 -1.10007 -0.759118 -1.07653 
1.38778e-17 -1.38778e-17 -0.0937037 -0.394327 -0.733558 -0.723594 -1.38778e-17 6.93889e-18 -0.270581 
-0.609576 -0.89785 -0.947775 -1.18723 -1.16505 -1.13002 -1.22198 -1.45324 -1.05245 
-1.40113 0 -0.0650626 -0.366359 -0.724061 -0.688199 -1.02413 6.93889e-18 1.38778e-17 
-0.321254 -0.643343 -0.955275 -1.21309 -1.38472 -1.53979 -1.42503 -1.4786 -1.68969 
-1.77163 -1.37764 -1.34777 -1.45864 -1.72835 0 0 -0.0387346 -0.677439 
-0.340526 -0.487377 -0.993195 -3.46945e-18 -0.0384573 -0.335825 -0.394718 -0.687688 -0.97889 
-1.2166 -1.26729 -1.55557 -1.48999 -1.67842 -1.75051 -1.81838 -1.78248 -1.93446 
-2.11298 -1.46988 -1.3148 -1.41207 -1.70729 -2.06223 -2.08656 -2.03559 0 
-6.93889e-18 -6.93889e-18 -0.0241813 -0.329053 -0.185735 -0.650434 -0.637116 -0.966703 -1.29576 
0 0 0 -0.107132 -0.411567 -0.117237 -0.712497 -0.96508 -0.995687 
-1.39681 -1.84635 -1.76664 -2.07237 -2.08127 -2.13973 -2.37119 -2.4346 -2.41263 
-1.67638 -1.64378 -1.62275 -2.00361 -2.39017 -2.15743 0 0 -0.0224264 
-0.325545 -0.0314361 -0.33737 -0.957542 -0.65156 -0.960926 -0.766747 -1.29284 -1.04898 
0 0 -0.121959 -0.415456 0 -1.38778e-17 -0.688689 -0.848174 -1.18491 
-0.564779 -0.580011 -1.04177 -1.42801 -1.828 -1.6903 -2.13475 -2.21082 -2.44164 
-2.61309 -2.59683 -1.97106 -1.95496 -1.62001 -1.2881 -1.95245 -1.69046 -2.15389 
-2.07311 -2.36562 -2.728 -2.77779 -2.69445 3.46945e-18 -3.46945e-18 0 -0.0796501 
-0.381289 -0.344641 -0.662715 -0.976277 -0.704992 0 -6.93889e-18 -0.0837464 -0.320034 
-0.460864 -0.536335 -1.09679 -0.481234 -0.138714 -0.291471 -0.625803 -0.807688 -1.51674 
-1.89235 -1.64231 -1.98385 -2.30414 -2.7424 -2.65619 -2.72492 -2.97572 -2.2825 
-1.6239 -1.30751 -1.44574 -1.95463 -2.33524 -2.30281 -2.66217 -3.04753 -2.86202 
0 -1.38778e-17 -0.109539 -0.49741 -1.03329 -1.32643 -1.12159 -0.790201 -0.699041 
-1.05048 0 -3.46945e-18 6.93889e-18 0 -0.175455 -0.346456 -1.0284 -1.14284 
-0.0729706 -0.0763496 -0.487023 -0.105098 -0.718325 -1.27706 -1.55155 -1.92536 -1.75427 
-2.06206 -2.47329 -2.7622 -2.87592 -3.10106 -3.35313 -2.29229 -2.61635 -2.61449 
-2.33218 -1.6437 -1.36841 -1.98203 -2.06902 -2.63005 -2.84011 -2.74245 -3.02465 
-3.35156 0 0 0 -0.193302 -0.535371 -1.14159 -0.813014 -0.957537 
-0.77408 6.93889e-18 -6.93889e-18 1.38778e-17 6.93889e-18 -0.971002 -1.20637 6.93889e-18 -6.93889e-18 
6.93889e-18 -1.38778e-17 -0.201594 -0.465723 -3.46945e-18 6.93889e-18 -0.894687 -1.3676 -1.80706 
-1.56849 -2.15453 -2.23138 -2.32561 -2.64357 -3.04974 -3.27187 -3.42033 -2.1421 
-2.47391 -2.81191 -1.7052 -1.99521 -1.76854 -1.45657 -1.39226 -2.9918 -2.95886 
-3.31636 -3.57554 2.08167e-17 -0.283475 -0.391753 -0.695128 -1.2048 -1.00687 -1.04988 
-0.887167 -1.23753 -1.12039 1.38778e-17 0 -0.0358282 -0.41411 -0.744603 -1.52615 
-1.68193 -2.00233 -2.50116 -2.42218 -2.21935 -2.7816 -2.88567 -3.17505 -3.34144 
-3.44864 -3.49726 -3.66094 -1.85696 -1.84631 -1.81311 -2.20844 -2.15732 -2.56595 
-2.48781 -2.22869 -2.93193 -3.14333 -2.59277 -1.46879 -1.46187 -1.47863 -1.20303 
-3.44075 -3.18896 -3.68355 1.38778e-17 -0.0304071 -0.101371 -0.463359 -0.211175 -1.16664 
-1.12472 -1.09379 -0.69292 -0.893054 -0.758545 -0.630372 -0.668993 -1.36716 -1.0301 
0 -0.324394 -0.0358492 -0.675216 -1.83415 -1.58173 -1.79459 -2.15323 -2.63193 
-2.35528 -2.8326 -3.04064 -3.23889 -3.49506 -3.63909 -3.44718 -3.80132 -3.75802 
-1.92516 -1.59524 -1.46203 -1.5162 -2.31029 -2.67162 -3.02258 -1.3737 -1.26164 
-1.07077 -3.4726 -3.24907 0 0 -3.46945e-18 -3.46945e-18 -6.93889e-18 0 
0 -0.362326 -0.312584 -0.7456 -0.515145 -0.401153 -0.752564 -0.868848 -0.473298 
-0.463968 -1.32974 -0.956915 1.38778e-17 -0.625355 -0.325938 -0.626545 -0.124288 -0.929459 
-2.03908 -1.45183 -1.54162 -1.90611 -1.95508 -2.49729 -2.82391 -2.45031 -2.28124 
-2.87897 -3.26383 -3.59425 -3.78881 -3.87699 -3.84128 -4.03956 -3.87635 -3.58634 
-3.65675 -2.03428 -1.77307 -1.22433 -1.12374 -1.62409 -2.05667 -2.43455 -2.36465 
-2.79782 -2.72437 -2.47991 -3.18519 -3.37022 -2.83299 -1.03337 -1.07315 6.93889e-18 
-0.0787803 -0.172189 -0.439596 -0.440565 -0.0956192 -0.142844 -0.520404 -0.569157 -0.753871 
-0.430537 -0.505575 -1.24617 0 -0.392617 -0.670768 -0.932637 1.38778e-17 -0.163796 
-1.2368 -1.24744 -1.54555 -1.8574 -1.84375 -2.19204 -2.69878 -3.0991 -2.36789 
-3.50301 -3.66972 -4.07421 -3.90765 -4.11472 -3.9194 -4.04984 -3.70801 -3.41532 
-3.49855 -2.18194 -1.77226 -1.8049 -1.48438 -1.16717 -0.974547 -0.987277 -0.743386 
-2.57103 -2.93711 -3.29206 -6.93889e-18 6.93889e-18 3.46945e-18 1.38778e-17 1.38778e-17 1.38778e-17 
-0.206231 -0.142806 -0.175585 -0.365264 -1.38778e-17 -1.38778e-17 -6.93889e-18 0 -0.300247 
-0.0741544 -0.507476 -0.511122 -0.430017 -0.450891 -0.955895 -0.749295 0 -0.055053 
-0.30155 -1.3368 -1.56159 -1.84627 -2.17371 -2.15157 -2.36875 -2.6185 -2.89795 
-2.98451 -3.31629 -2.56908 -3.37513 -3.70191 -3.79542 -4.01735 -4.25827 -4.25364 
-4.10758 -3.8426 -3.88822 -3.63534 -3.38296 -2.31994 -2.03574 -1.46141 -1.93655 
-1.7835 -1.31388 -0.799465 -1.24565 -1.05613 -0.534876 -0.440264 -2.34762 -2.73565 
-3.09247 0 -1.38778e-17 -0.217948 1.38778e-17 -1.38778e-17 -0.231675 -6.93889e-18 0 
-0.35449 6.93889e-18 -0.304613 -6.93889e-18 0 -0.125564 -0.55398 -1.07157 -0.808845 
0 0 0 6.93889e-18 -0.111235 -0.401177 -1.616 -1.40962 -1.88494 
-2.15248 -2.02183 -2.19433 -2.26015 -2.49663 -2.46326 -2.48438 -2.85133 -2.95875 
-3.23204 -3.62255 -2.83159 -3.75583 -4.01964 -4.15936 -4.31353 -4.48181 -4.18426 
-3.98622 -3.78393 -3.43387 -3.23653 -2.12644 -2.48734 -1.49532 -1.32047 -1.68063 
-0.734896 -0.960358 -0.377549 -2.86595 0 1.38778e-17 0 -0.247279 -0.139628 
-1.38778e-17 6.93889e-18 0 0 -0.701905 -0.967736 -1.2187 -2.77556e-17 -0.250966 
-0.479342 -1.90285 -1.65063 -1.73292 -2.00336 -1.47237 -2.22348 -2.49238 -2.46659 
-2.78745 -2.78205 -2.95807 -3.18232 -3.4006 -3.55094 -3.80468 -3.94488 -4.14153 
-4.42292 -4.45487 -4.49894 -4.31792 -4.32241 -4.12891 -4.13382 -3.89326 -3.59667 
-3.53865 -3.32386 -3.08515 -2.97838 -1.87007 -1.84151 -2.39504 -2.259 -2.16728 
-2.57158 -1.59081 -1.19952 -1.42756 -0.634512 -0.894956 -6.93889e-18 -0.22743 -2.72935 
0 -0.205526 -1.38778e-17 0 -1.38778e-17 -1.38778e-17 -0.892297 -0.727603 -1.0956 
-1.19112 -1.37842 -1.62874 -6.93889e-18 -0.0455841 -0.424166 -0.149321 -0.665616 -1.8794 
-1.76101 -2.28143 -2.15043 -2.40049 -2.53551 -2.79606 -2.85603 -2.93173 -3.10623 
-3.14259 -3.51763 -3.81264 -3.90231 -4.29676 -4.47517 -4.4571 -4.30178 -4.24714 
-4.05346 -3.92934 -3.87674 -3.93935 -3.70564 -3.38556 -3.02524 -3.19654 -2.64592 
-1.70054 -2.03169 -2.37394 -2.1028 -1.01615 -1.37764 -0.490407 -0.752474 -3.46945e-18 
0 -0.0951189 1.38778e-17 -0.039284 -0.0800814 6.93889e-18 -1.13149 -1.08206 -1.30843 
-1.49982 -1.54543 -1.78932 -2.03696 0 0 1.38778e-17 -0.230654 -0.486579 
0 6.93889e-18 -0.76285 -0.867119 -2.67213 -2.28699 -2.42268 -2.542 -2.8031 
-2.57343 -3.13865 -2.95515 -3.15331 -3.23584 -3.10059 -3.10662 -3.42667 -3.23531 
-3.46031 -3.44411 -3.80141 -3.86245 -4.18734 -4.51774 -4.56134 -4.42607 -4.1941 
-4.1149 -3.91591 -3.70213 -3.74858 -3.70321 -3.58686 -3.50114 -3.44283 -2.81837 
-2.98292 -3.15528 -2.47587 -1.57309 -1.98258 -1.8289 -1.61847 -2.43071 -2.27639 
-2.2048 -2.11219 -1.28238 -0.888199 -1.15372 -0.359806 -0.624097 0 -6.93889e-18 
-0.232491 0 0 0 -6.93889e-18 6.93889e-18 -1.20599 -1.50255 -1.60233 
-1.72877 -1.96452 -2.20687 -1.38778e-17 6.93889e-18 -1.38778e-17 -0.296473 -0.590702 -0.576873 
-0.808529 -0.889691 -3.07076 -2.45268 -2.58864 -2.70079 -2.9532 -3.21121 -3.31008 
-3.51009 -3.52885 -3.62526 -3.76308 -3.76037 -3.74379 -3.83246 -3.78258 -4.12382 
-4.49008 -4.50377 -4.58964 -4.34807 -4.25827 -4.09101 -3.97884 -3.77972 -3.59634 
-3.46773 -3.4296 -3.44735 -3.37299 -3.16271 -3.06649 -2.60943 -2.6522 -3.03513 
-3.00629 -2.89957 -1.42214 -1.7718 -2.57816 -2.39173 -1.99316 -2.26062 -0.766106 
-0.498692 -1.0361 -1.30816 1.38778e-17 -0.0991017 -0.37347 -0.920788 -1.23825 -1.5458 
-1.8734 -2.15889 -2.3917 -2.59999 -6.93889e-18 -0.291442 -0.310361 -0.60464 -0.747508 
-3.36295 -2.87247 -3.11812 -3.36786 -3.4751 -3.62308 -3.5894 -3.64233 -3.74526 
-3.91733 -4.02371 -3.84275 -4.11131 -4.14881 -4.0357 -4.21936 -4.18337 -4.22534 
-4.5538 -4.46204 -4.522 -4.52129 -4.44994 -4.19463 -4.39817 -4.25001 -3.95622 
-3.90187 -3.69408 -3.46886 -3.22614 -3.28409 -3.20372 -3.03975 -2.94296 -2.90347 
-2.78674 -2.6443 -2.8761 -2.63566 -1.69563 -1.58286 -2.38827 -1.86234 -2.18151 
-2.31193 -2.02389 -0.649181 -0.925039 -1.203 -1.48214 0 0 3.46945e-18 
-0.257674 -0.541398 -1.00286 -1.3215 -1.50219 -1.62815 -1.93683 -2.23968 -2.44319 
-2.52227 -2.59761 -2.81955 1.38778e-17 -0.126395 -0.110067 -0.094648 -0.377394 -0.56895 
-0.650818 -3.05429 -3.29426 -3.5381 -3.89038 -3.7855 -4.03848 -4.1525 -4.22214 
-4.36241 -4.46061 -4.15136 -4.48498 -4.31094 -4.32662 -4.53287 -4.63495 -4.34967 
-4.03684 -3.98894 -3.84359 -4.23221 -4.14852 -3.73324 -3.65059 -3.52509 -3.33256 
-3.15692 -2.96698 -2.85812 -2.78787 -2.72869 -2.78563 -2.6759 -2.74287 -2.28943 
-2.30198 -2.66302 -2.63668 -2.52151 -1.68782 -2.05016 -1.75326 -1.99887 -1.87534 
-0.821004 -1.09995 -1.31994 -1.39818 -1.38778e-17 -0.149131 -0.434263 -0.710606 -1.0089 
-0.686693 -1.09941 -1.43488 -1.73595 -2.02434 -2.27308 -2.61579 -2.53654 -2.9018 
-1.38778e-17 -1.38778e-17 0 0 0 -1.38778e-17 -0.151922 -0.2192 -0.428943 
-0.518429 -0.82671 -3.18773 -3.47556 -3.71802 -4.12111 -3.96005 -4.2054 -4.42765 
-4.29783 -4.56242 -4.53965 -4.70873 -4.60877 -4.75797 -4.58685 -4.83929 -4.76283 
-4.7274 -4.48732 -4.29635 -3.78204 -3.74276 -3.72704 -3.51029 -4.06923 -4.18843 
-4.06085 -3.43605 -3.20668 -2.95845 -2.68441 -2.89799 -2.68492 -2.60689 -2.47214 
-2.57914 -2.66566 -2.50847 -2.45051 -2.61114 -2.36654 -2.35038 -2.29423 -2.08646 
-1.95625 -2.30088 -1.45737 -1.69796 -1.40421 -1.96207 -1.66707 -0.941267 -1.03423 
-1.10752 -1.1599 6.93889e-18 1.38778e-17 -0.0329014 -0.306454 -0.538547 -0.660203 -0.878429 
-1.1337 -1.03651 -1.33331 -1.56483 -1.7972 -2.16955 -2.32806 -2.447 -2.72303 
-2.99746 6.93889e-18 0 -0.173475 -0.466609 -0.535717 -0.669026 -3.27315 -3.55252 
-3.83658 -4.36134 -4.12465 -4.38199 -4.45608 -4.71141 -4.97024 -4.83088 -4.78136 
-4.68501 -4.92434 -4.96989 -4.97405 -4.66295 -4.87564 -4.45757 -4.41977 -3.96152 
-3.61927 -3.59201 -3.38438 -3.54927 -3.53278 -3.29148 -3.16184 -4.14411 -3.90569 
-3.83026 -3.08653 -2.65652 -2.92845 -2.37803 -2.39966 -2.44746 -2.23459 -2.30978 
-2.25615 -2.33967 -2.17087 -2.09202 -2.05575 -2.294 -2.21306 -1.95558 -1.97632 
-1.73208 -1.64751 -1.87217 -1.11172 -1.3486 -1.47551 -1.05183 -1.64988 -0.747344 
-0.817362 -0.862832 -0.820763 0 0 0 -3.46945e-18 -0.113573 -0.272563 
-0.37406 -0.455727 -0.728233 -1.11492 -0.923067 -1.6029 -1.55442 -1.88938 -2.28983 
-2.07366 -2.54617 -2.81022 -3.08644 -6.93889e-18 -1.38778e-17 -0.268181 -0.738547 -0.793653 
-3.37792 -3.66622 -3.92248 -4.5877 -4.19979 -4.62532 -4.48266 -4.76924 -4.87252 
-4.87359 -5.02773 -4.75099 -5.08439 -5.11338 -4.59458 -4.77986 -4.63446 -4.94325 
-4.8336 -4.34415 -3.59822 -3.5149 -3.30761 -3.07733 -3.40206 -3.37876 -3.28363 
-4.32155 -4.04098 -3.7696 -2.85926 -2.05329 -2.69259 -2.6561 -2.28086 -2.54755 
-2.15837 -2.14703 -2.01954 -2.03404 -1.899 -1.82865 -1.77256 -1.95531 -1.99226 
-1.62994 -1.62935 -1.67561 -1.33375 -1.36632 -1.49265 -0.756982 -1.33722 -1.31687 
-1.02073 -0.523566 -0.564257 -0.529221 -0.463706 1.38778e-17 0 -5.20417e-18 -1.04083e-17 
-0.0825191 -0.16207 -0.227389 -1.29452 -1.00687 -1.8003 -1.59008 -2.33014 -2.58766 
-2.07903 -2.31413 -2.51521 -2.8495 -3.11274 6.93889e-18 -0.0729937 -0.189063 -0.442234 
-0.540306 -0.966932 -1.18539 -3.49854 -3.75756 -3.96967 -4.24416 -4.56131 -4.8732 
-4.75773 -4.67463 -4.691 -4.94437 -4.90766 -4.63408 -4.53688 -4.54778 -4.58357 
-4.76792 -4.77526 -4.80234 -4.52961 -4.26077 -3.50206 -3.74532 -3.36584 -3.58973 
-3.17258 -2.93459 -3.12873 -3.23672 -3.04596 -3.95996 -1.82126 -1.78917 -2.88715 
-2.25696 -2.80042 -2.49418 -2.03036 -1.99578 -1.89542 -2.18483 -1.73049 -1.64083 
-1.58377 -1.6289 -1.7136 -1.31907 -1.38664 -1.03727 -1.02027 -1.45289 -0.415408 
-0.714175 -0.790683 -1.01379 -1.00548 -0.262892 -0.233362 -0.170042 -0.117772 -3.46945e-18 
-6.93889e-18 -6.93889e-18 0 1.38778e-17 -1.38778e-17 -1.38082 -1.82069 -2.74807 -2.99262 
-1.85838 -2.31678 -2.52357 -2.56798 -2.72687 -3.24407 6.93889e-18 -6.93889e-18 -6.93889e-18 
1.38778e-17 0 -0.332002 -0.454749 -0.720884 -1.30973 -0.793687 -1.22497 -1.57314 
-3.63655 -3.8805 -4.0213 -4.13231 -4.30332 -4.55704 -4.62689 -4.44763 -4.51666 
-4.61352 -4.50576 -4.34332 -4.26802 -4.47368 -4.74697 -4.66419 -4.37366 -4.48819 
-4.21441 -3.2232 -3.14284 -2.98374 -3.82177 -3.79545 -3.45695 -2.98777 -2.73893 
-4.12324 -1.67986 -1.48259 -2.45336 -1.82146 -1.63693 -1.88099 -2.07166 -2.00596 
-1.49718 -1.30856 -1.34458 -1.1158 -0.750126 -0.776436 -0.70216 -1.19999 -0.407999 
-6.93889e-18 6.93889e-18 -6.93889e-18 6.93889e-18 -6.93889e-18 0 -0.103379 0 0 
-1.64615 -2.83738 -3.11257 -2.1249 -2.35707 -2.59803 -2.85673 -2.93946 -3.39901 
0 -0.113487 -0.202891 -0.577471 -0.351408 -1.43505 -1.01509 -1.0847 -1.38542 
-3.70964 -3.97076 -4.04839 -4.25948 -4.39039 -4.50551 -4.44795 -4.27756 -4.22251 
-4.36174 -4.39854 -4.26744 -4.12416 -4.21222 -4.20801 -4.0629 -4.08242 -4.46103 
-4.64193 -4.66962 -4.39245 -4.4759 -4.17102 -3.13864 -2.92488 -2.74627 -2.90942 
-2.85143 -2.59531 -4.04139 -3.69141 -3.34973 -2.70224 -1.54525 -1.41229 -2.25839 
-2.50289 -1.57228 -1.73244 -2.17516 -1.81237 -1.23313 -1.06183 -1.11432 -1.0006 
-1.10607 -0.419999 -0.440033 -0.46437 -0.520219 -0.775205 -0.832314 -0.400537 -0.846716 
-0.0988004 0 0 -1.89605 -3.16541 -2.12963 -2.36808 -2.61819 -2.80427 
-2.98209 -3.1263 -3.26337 -3.57477 0 -1.38778e-17 6.93889e-18 0 6.93889e-18 
-0.517084 -0.796656 -0.843805 0 -0.120717 -0.261558 -1.67125 -1.22581 -1.00229 
-1.44728 -3.794 -4.18274 -4.32733 -4.40978 -4.20591 -4.4064 -4.03982 -4.11406 
-4.14143 -4.00312 -4.13879 -4.23905 -4.03019 -3.87832 -3.92184 -3.95287 -3.79309 
-3.8404 -3.77085 -4.37249 -4.23509 -4.10239 -3.10392 -2.48835 -2.75153 -3.00825 
-2.48658 -4.1919 -4.00407 -3.93684 -3.60007 -3.26582 -1.31841 -2.34724 -1.46266 
-1.3134 -1.23891 -1.50877 -1.50701 -2.08932 -1.6591 -1.95103 -1.58212 -0.95533 
-0.893696 -0.827036 -0.607059 -0.114902 -0.166884 -0.209173 -0.577223 1.38778e-17 0 
0 -3.36583 -1.89579 -2.21933 -2.42637 -2.84547 -2.86391 -3.12543 -3.16703 
-3.40865 -3.48087 -3.59867 -3.71841 -3.85524 -0.56566 -0.328719 0 0 
0 -0.0616585 -1.29205 -1.42854 -1.66231 -0.76654 -0.860682 -1.1579 -3.97162 
-3.94492 -3.94351 -3.98376 -4.11847 -4.21759 -4.21255 -4.00187 -3.86873 -3.8123 
-3.86184 -3.79379 -3.59544 -3.877 -4.02798 -3.80195 -3.63092 -3.64388 -3.61864 
-3.6974 -3.64035 -3.65902 -3.62432 -3.59588 -3.56209 -3.80437 -3.95338 -2.22047 
-2.67383 -3.15271 -2.93849 -2.40189 -3.78479 -3.66124 -3.78255 -3.57998 -3.5255 
-3.51072 -3.20311 -1.21365 -1.0811 -1.02184 -1.20177 -1.34651 -1.6228 -1.86561 
-2.12165 -0.738224 -0.899559 -0.779451 -0.538692 -0.508634 0 0 -0.157734 
-1.38778e-17 -0.285234 1.38778e-17 -1.38778e-17 1.38778e-17 1.04083e-17 -1.74589 -1.9916 -2.34731 
-2.59336 -3.12161 -2.96002 -3.27905 -3.43596 -3.62273 -3.30909 -3.32528 -3.77435 
-3.79787 -0.0939287 -0.521741 -6.93889e-18 0 -1.47682 -1.19519 -1.61499 -1.36702 
-0.589816 -0.952143 -0.696173 -3.94727 -3.737 -3.86329 -4.01735 -4.13625 -3.93504 
-3.80459 -3.63074 -3.53218 -3.61351 -3.62009 -3.37821 -3.18809 -3.40236 -3.58704 
-3.35811 -3.34797 -3.4617 -3.29949 -3.52233 -3.26181 -3.36956 -3.13732 -3.75449 
-2.91922 -2.63839 -3.052 -2.36265 -2.093 -3.56448 -3.3336 -3.37044 -3.49214 
-3.30757 -3.20148 -1.04102 -1.00001 -0.964644 -1.02586 -0.878941 -0.608088 -0.635898 
-1.53451 -1.22102 -1.04583 -0.979242 -1.76866 -0.40666 -0.366937 -0.652576 -0.319686 
-0.221222 -0.268381 -0.212658 0 1.04083e-17 -1.86101 -2.10435 -2.29224 -2.54625 
-2.77523 -3.37042 -3.11498 -3.05965 -3.406 -3.60412 -3.29623 -3.01208 -3.22144 
-3.60402 -3.60836 6.93889e-18 -6.93889e-18 -0.26965 -0.322034 -1.77633 -2.03664 -1.10995 
-1.50967 -0.433294 -0.840638 -3.56902 -3.52247 -3.6316 -3.84905 -3.78067 -3.81023 
-3.60993 -3.38835 -3.35341 -3.44599 -3.2031 -3.57735 -3.29866 -3.16272 -3.16994 
-2.96408 -2.9519 -3.43823 -2.98646 -3.12089 -3.16737 -3.07284 -2.98935 -3.02742 
-3.04195 -2.98985 -3.16113 -2.9934 -3.00253 -2.88822 -2.9489 -2.93028 -3.52614 
-2.89891 -2.6249 -3.01239 -2.7473 -2.74608 -2.3491 -2.06505 -3.24072 -3.18802 
-3.08361 -2.8667 -2.9141 -0.692087 -0.533723 -0.476208 -1.4653 -1.26878 -1.16768 
-0.893754 -0.821549 -1.76464 -2.05761 -1.58923 -1.45225 -1.04083e-17 1.73472e-17 -0.0912517 
0 -6.93889e-18 -0.119693 -0.245323 0 -2.42633 -2.61971 -2.97229 -3.04074 
-3.05242 -2.8244 -2.88731 -3.26857 -2.9884 -2.75269 -2.69168 -3.52905 -3.2976 
-3.29845 0 0 -0.0783325 -1.57247 -1.89924 -2.18044 -0.935488 -1.22233 
-0.160999 -0.28594 -0.566221 -0.641319 -3.43148 -3.471 -3.18287 -3.22345 -3.5868 
-3.7236 -3.40575 -3.29567 -3.18601 -3.02841 -2.95075 -2.73116 -2.69928 -2.78552 
-2.75958 -2.60209 -3.35814 -2.893 -2.65725 -2.8702 -2.67544 -3.10129 -2.87324 
-2.57781 -2.68173 -2.82447 -2.85957 -2.66674 -2.50904 -2.79167 -2.62125 -2.7168 
-2.44491 -2.44259 -2.42675 -2.3396 -3.12935 -2.86726 -2.95878 -2.80076 -2.61592 
-2.52035 -0.521644 -0.309387 -0.137001 -1.14815 -1.14941 -0.620901 -0.849361 -1.78877 
-2.09808 -2.37769 -1.92283 -1.45584 -1.50801 3.46945e-18 0 -6.93889e-18 0 
6.93889e-18 -0.161702 1.04083e-17 0 -2.45535 -2.72382 -2.76553 -2.68401 -2.51842 
-2.64323 -2.98661 -2.69149 -2.45732 -2.4426 -2.41615 -3.19394 -2.99322 0 
0 -1.38778e-17 -1.61359 -1.32622 -1.97237 -2.26792 -0.954568 -0.669797 -1.38778e-17 
3.46945e-18 1.21431e-17 -5.20417e-18 -0.354222 -0.383147 -3.34204 -3.44311 -3.13867 -3.05982 
-3.00984 -3.51179 -3.3902 -3.20165 -2.99628 -2.76756 -2.73027 -2.49721 -2.45945 
-2.41238 -2.46798 -2.21011 -2.617 -2.61032 -2.42086 -2.65907 -2.60599 -2.44586 
-2.82815 -2.46864 -2.42407 -2.49268 -2.50498 -2.47856 -2.37529 -2.25343 -2.37276 
-2.48431 -2.41978 -2.14393 -2.14122 -2.12347 -2.59727 -2.5536 -2.68001 -2.40245 
-2.23981 -0.468422 -0.0923463 0 0 1.38778e-17 -1.19684 -1.10812 -0.514744 
-0.882993 -1.81063 -2.12748 -2.1006 -2.0912 -1.84725 -1.54085 -1.21282 0 
-2.56225 -2.48844 -2.47398 -2.6076 -2.40016 -2.37733 -2.30885 -2.22878 -2.29255 
-2.84064 -2.6924 -2.40017 -2.1237 -2.30873 -1.67633 -1.0375 -1.38119 -1.99731 
-2.29726 -0.746114 -1.73472e-18 -0.0472254 -0.166607 -0.454506 -3.11687 -2.96566 -2.9436 
-2.90357 -2.73829 -2.69796 -3.32036 -3.30878 -3.18427 -2.86035 -2.90304 -2.50533 
-2.70356 -2.25714 -2.2248 -1.99173 -2.24227 -2.0841 -1.9569 -1.90632 -2.33731 
-2.44617 -2.2247 -2.39052 -2.29171 -2.41279 -2.33519 -2.21596 -2.06923 -2.3705 
-2.28344 -2.17135 -2.31739 -2.13013 -1.99656 -1.96214 -2.34406 -2.08888 -2.12189 
-1.84394 -1.84122 -1.82281 -1.81295 -1.99443 -2.32127 -2.2787 -2.14784 -2.12457 
-1.9586 -1.84664 -2.0571 -0.163416 -0.355493 -0.0817788 -1.38778e-17 0 -0.541117 
-0.931556 -0.550402 -2.07176 -1.77029 -1.72806 -1.62545 -1.30332 -1.48558 -1.23936 
-2.2361 -2.19525 -2.18036 -2.11813 -2.02436 -2.17526 -1.94098 -1.89439 -2.41317 
-2.1089 -1.87515 -1.83197 -1.81892 -2.10843 -2.12624 -1.69777 -1.08696 -1.4 
-1.97695 -0.7924 0 0 0 -1.38778e-17 -1.38778e-17 1.38778e-17 -0.210844 
-0.50005 -3.01727 -2.73887 -2.92231 -2.84638 -2.82845 -2.60016 -2.71903 -2.42938 
-2.97932 -2.94578 -2.74927 -2.54974 -2.51685 -2.83357 -2.2322 -2.13095 -2.28081 
-2.40821 -1.80473 -1.70348 -1.68985 -2.05379 -2.09144 -1.99976 -2.19201 -1.99777 
-2.13237 -1.97551 -2.05392 -1.81668 -1.98114 -1.92032 -1.96781 -2.00256 -2.02092 
-1.97423 -2.01737 -1.86831 -1.7656 -1.74081 -1.59245 -1.82449 -1.78977 -1.54558 
-1.52773 -1.54322 -1.54728 -1.79913 -1.49901 -2.04204 -2.00359 -1.87684 -1.67672 