# vtk DataFile Version 4.2
3D Slicer output. SPACE=LPS
ASCII
DATASET POLYDATA
POINTS 3627 float
-75.6049 14.5757 7.22569 -75.5386 14.5757 7.14082 -75.5386 14.5193 7.22569 
-75.992 15.0757 7.22569 -75.8549 14.5757 7.72569 -76.0386 15.0757 7.34617 
-75.0386 14.1899 7.22569 -75.1559 14.5757 6.72569 -75.5386 14.8688 6.72569 
-75.5386 14.2367 7.72569 -75.0386 14.0757 7.38468 -75.7304 15.0757 6.72569 
-76.0386 15.1593 7.22569 -75.5386 14.0757 8.05636 -76.0386 14.5757 8.12801 
-76.0386 14.8386 7.72569 -76.1793 15.0757 7.72569 -76.2662 15.4429 7.62487 
-76.1466 15.4047 7.2669 -76.3056 15.4487 7.72569 -75.0386 14.5035 6.72569 
-74.8476 14.0757 7.22569 -75.0386 14.5757 6.5604 -75.5386 15.0757 6.42303 
-75.0386 14.7607 6.22569 -75.3429 14.0757 7.72569 -75.0386 13.8123 7.72569 
-75.8534 15.3783 6.72569 -75.5849 15.3334 6.34643 -76.0386 15.3951 7.04149 
-75.9192 15.382 6.83272 -76.1351 15.404 7.22569 -75.6309 14.0757 8.22569 
-75.5386 13.9845 8.22569 -75.0386 13.5757 8.18092 -76.0386 14.5073 8.22569 
-76.3655 15.0757 8.22569 -76.3527 15.4538 7.84762 -74.5386 14.2634 6.72569 
-74.5386 14.0757 7.00512 -74.5386 13.8714 7.22569 -74.7153 14.5757 6.22569 
-75.5386 15.3284 6.27623 -75.3848 15.0757 6.22569 -75.0386 15.0757 5.92606 
-74.7635 15.0757 5.72569 -74.6899 13.5757 7.72569 -75.9246 14.0757 8.72569 
-75.5386 13.7502 8.72569 -76.0386 14.1787 8.72569 -75.0636 13.5757 8.22569 
-75.2768 13.5757 8.72569 -74.5386 13.3316 8.22569 -76.3264 14.5757 8.72569 
-76.4631 15.475 8.22569 -76.5386 15.0831 8.72569 -76.5386 15.4835 8.44439 
-76.5055 15.4801 8.35018 -74.5386 14.4987 6.22569 -74.0386 14.242 6.22569 
-74.0386 14.0757 6.52966 -74.2033 14.0757 6.72569 -74.5386 13.5757 7.58721 
-74.0386 13.5757 7.24437 -74.0386 13.9685 6.72569 -74.5386 14.5757 6.08259 
-74.5386 14.8874 5.72569 -75.497 15.3235 6.22569 -75.3871 15.3125 6.13492 
-75.0386 15.2859 5.79544 -74.5386 15.0757 5.59065 -74.9344 15.2761 5.72569 
-74.5386 13.4958 7.72569 -76.0386 14.0757 9.00266 -75.5386 13.634 9.22569 
-75.4456 13.5757 9.22569 -75.0386 13.4421 8.72569 -75.0386 13.3118 9.22569 
-74.5386 13.1336 8.72569 -74.0386 13.2119 7.72569 -74.0386 13.0757 8.0904 
-74.1084 13.0757 8.22569 -74.4508 13.0757 8.72569 -76.4696 14.5757 9.22569 
-76.5386 14.71 9.22569 -76.5386 15.0757 8.73429 -76.6423 15.4947 8.72569 
-76.6426 15.4948 8.72708 -73.6632 14.0757 6.22569 -74.0386 14.5757 5.7894 
-73.8894 14.5757 5.72569 -73.5386 14.4563 5.72569 -73.5386 13.6805 6.72569 
-74.014 13.5757 7.22569 -73.5386 13.5757 6.8668 -74.0386 15.0757 5.3193 
-74.8425 15.2718 5.67275 -74.5538 15.2315 5.47692 -74.5386 15.2274 5.46828 
-74.2545 15.128 5.38332 -76.1008 14.0757 9.22569 -76.0386 14.0009 9.22569 
-75.5386 13.5757 9.40142 -74.7437 13.0757 9.22569 -74.5386 13.0757 8.85984 
-75.5386 13.4582 9.72569 -75.0386 13.0757 9.71005 -73.5386 13.3108 7.22569 
-73.7633 13.0757 7.72569 -73.5386 12.6835 8.22569 -74.0386 12.7765 8.72569 
-73.5386 12.5757 8.40125 -76.5386 14.5757 9.44288 -76.6953 15.0757 9.22569 
-76.6678 15.4978 8.80361 -73.5386 14.0366 6.22569 -73.5386 14.5757 5.59029 
-73.8759 15.0757 5.22569 -73.5386 14.894 5.22569 -73.0386 14.3181 5.72569 
-73.0386 14.0757 6.05209 -73.0386 13.9522 6.22569 -73.097 13.5757 6.72569 
-74.0386 15.1265 5.26758 -76.2259 14.0757 9.72569 -76.0386 13.8727 9.72569 
-75.6852 13.5757 9.72569 -74.5386 12.885 9.22569 -74.5386 12.6399 9.72569 
-75.8077 13.5757 10.2257 -75.5386 13.2769 10.2257 -75.0494 13.0757 9.72569 
-75.3215 13.0757 10.2257 -75.0386 12.8237 10.2257 -74.5386 12.5757 9.85191 
-73.5386 13.0757 7.57209 -73.0386 13.0757 7.28543 -73.5386 12.9819 7.72569 
-73.3814 12.5757 8.22569 -73.7955 12.5757 8.72569 -74.0386 12.5757 9.05317 
-73.5386 12.3101 8.72569 -73.0386 12.3132 8.22569 -76.6429 14.5757 9.72569 
-76.5386 14.4478 9.72569 -76.8977 15.0757 9.72569 -76.8085 15.5038 9.22569 
-76.8372 15.5072 9.29422 -73.0386 14.5757 5.40542 -73.9632 15.1251 5.22569 
-73.6945 15.0757 5.12184 -73.8903 15.1815 5.11988 -73.7822 15.1546 5.08679 
-73.0386 14.7262 5.22569 -73.5386 15.0132 5.09897 -72.5386 14.5757 5.383 
-72.5386 14.1879 5.72569 -72.5386 14.0757 5.8407 -72.5386 13.78 6.22569 
-72.5386 13.5757 6.51185 -72.5386 13.3713 6.72569 -72.9177 13.0757 7.22569 
-76.3419 14.0757 10.2257 -76.0386 13.8031 10.2257 -76.5386 14.2655 10.2257 
-74.1746 12.5757 9.22569 -74.4624 12.5757 9.72569 -75.9248 13.5757 10.7257 
-75.5386 13.1579 10.7257 -75.4356 13.0757 10.7257 -75.0386 12.7278 10.7257 
-74.7436 12.5757 10.2257 -74.9015 12.5757 10.7257 -74.5386 12.4168 10.2257 
-74.0386 12.0757 9.89156 -73.0386 12.7236 7.72569 -73.0386 12.5757 7.90718 
-73.5386 12.0757 9.00236 -74.0386 12.4361 9.22569 -73.7129 12.0757 9.22569 
-73.2407 12.0757 8.72569 -72.7761 12.5757 7.72569 -72.7716 12.0757 8.22569 
-73.0386 12.0757 8.54645 -76.7835 14.5757 10.2257 -76.9475 15.5045 9.72569 
-77.0338 15.0757 10.2257 -77.0386 15.1197 10.2257 -77.0386 15.5757 10.1186 
-76.9942 15.5757 9.90844 -72.5386 14.7198 5.22569 -73.4126 14.9876 5.08117 
-73.0386 14.9976 4.91995 -72.0386 14.5757 5.29404 -72.0386 14.0757 5.73472 
-72.0386 13.6677 6.22569 -72.0386 13.5757 6.34133 -72.5386 13.0757 7.02616 
-72.0386 13.1818 6.72569 -72.0386 13.0757 6.81921 -72.5386 12.879 7.22569 
-76.4344 14.0757 10.7257 -76.0386 13.6933 10.7257 -76.8259 14.5757 10.7257 
-76.5386 14.182 10.7257 -74.0386 12.1364 9.72569 -75.4694 13.0757 11.2257 
-76.0386 13.5695 11.2257 -75.0386 12.7158 11.2257 -74.9186 12.5757 11.2257 
-74.5386 12.1904 10.7257 -74.1438 12.0757 10.2257 -74.428 12.0757 10.7257 
-74.0386 11.959 10.2257 -73.7886 11.5757 10.2257 -73.5386 11.5757 9.73738 
-73.5329 11.5757 9.72569 -73.5386 11.9011 9.22569 -73.2316 11.5757 9.22569 
-73.0386 11.5757 9.02148 -73.0386 11.9148 8.72569 -72.5386 12.5757 7.55348 
-72.5386 12.3951 7.72569 -72.5386 12.0757 7.99858 -72.5386 11.8016 8.22569 
-72.813 11.5757 8.72569 -77.0386 14.9632 10.7257 -77.084 15.0757 10.7257 
-77.0592 15.5757 10.2257 -77.1402 15.5757 10.7257 -77.0386 15.6519 10.1375 
-77.0554 15.6552 10.2257 -77.0267 15.649 10.061 -72.0386 14.6484 5.22569 
-72.9418 15.0069 4.90814 -72.5386 15.0406 4.78596 -72.0386 15.0757 4.7547 
-71.9649 14.0757 5.72569 -71.5386 14.0419 5.72569 -71.5386 14.5757 5.24211 
-71.5386 13.5757 6.27793 -71.6919 13.0757 6.72569 -72.0579 12.5757 7.22569 
-71.5386 12.5757 7.03751 -76.4629 14.0757 11.2257 -76.8349 14.5757 11.2257 
-77.0386 14.9156 11.2257 -76.5386 14.1726 11.2257 -76.0623 13.5757 11.7257 
-75.5386 13.0957 11.7257 -75.0386 12.6155 11.7257 -74.5386 12.0757 11.6877 
-74.5097 12.0757 11.2257 -74.0386 11.5757 10.7837 -74.1995 11.5757 11.2257 
-73.5386 11.0179 10.2257 -73.8024 11.0757 10.7257 -73.2749 11.0757 9.72569 
-73.0386 11.2779 9.22569 -72.1705 12.0757 7.72569 -72.0386 11.5757 8.00602 
-72.3481 11.5757 8.22569 -72.5386 11.5757 8.39044 -72.5386 11.0926 8.72569 
-77.1025 15.0757 11.2257 -77.1174 15.6724 10.6138 -77.1442 15.5757 11.2257 
-77.1335 15.6828 10.7257 -77.143 15.6936 10.8436 -77.1461 15.6935 11.2257 
-71.5386 15.0757 4.85172 -72.3584 15.0757 4.74395 -72.1072 15.1215 4.68204 
-72.0386 15.1363 4.6758 -71.5386 15.1985 4.72569 -71.0386 14.5757 5.33747 
-71.0386 14.0318 5.72569 -71.2319 13.5757 6.22569 -71.0386 14.7616 5.22569 
-71.5386 13.0111 6.72569 -71.5386 12.3432 7.22569 -72.0386 12.0757 7.64637 
-71.0386 12.5757 6.88595 -71.0386 12.7874 6.72569 -76.4624 14.0757 11.7257 
-76.7868 14.5757 11.7257 -77.0386 15.0757 11.6352 -76.5386 14.1835 11.7257 
-76.0386 13.5757 11.8901 -75.5386 13.1237 12.2257 -75.0386 12.5757 12.0299 
-74.5418 12.0757 11.7257 -74.2858 11.5757 11.7257 -74.0386 11.2361 11.2257 
-73.4388 10.5757 10.2257 -73.5386 10.5757 10.3939 -73.6975 10.5757 10.7257 
-73.9855 11.0757 11.2257 -73.8977 10.5757 11.2257 -73.0386 11.0757 9.35308 
-73.0386 10.5757 9.66397 -72.9556 11.0757 9.22569 -72.0386 11.9737 7.72569 
-72.0386 11.1793 8.22569 -71.5386 11.0757 7.91703 -71.5915 11.5757 7.72569 
-72.5288 11.0757 8.72569 -71.9791 11.0757 8.22569 -77.1169 15.5757 11.7257 
-77.0386 15.1538 11.7257 -77.1495 15.7099 11.36 -77.1325 15.7418 11.7257 
-71.0386 15.0757 5.01329 -71.6712 15.2737 4.59309 -71.587 15.3012 4.5895 
-71.5386 15.3154 4.59385 -71.295 15.3822 4.6792 -71.0386 15.4631 4.72569 
-70.766 14.0757 5.72569 -70.5386 14.5757 5.4752 -71.0386 13.5317 6.22569 
-71.0386 13.0757 6.52443 -70.634 15.0757 5.22569 -71.0386 12.0941 7.22569 
-71.5386 12.0757 7.39909 -71.0074 12.0757 7.22569 -70.5386 12.0757 7.08542 
-70.5386 12.5757 6.81415 -70.5386 12.6984 6.72569 -70.5386 13.0757 6.43495 
-76.4046 14.0757 12.2257 -76.7274 14.5757 12.2257 -76.5386 14.2676 12.2257 
-77.0182 15.0757 11.7257 -76.988 15.0757 12.2257 -75.9607 13.5757 12.2257 
-76.0386 13.6532 12.2257 -75.0469 12.5757 12.2257 -75.5386 13.2335 12.7257 
-75.4074 13.0757 12.7257 -74.6378 12.0757 12.2257 -74.5386 11.9405 12.2257 
-74.0386 11.0757 11.4159 -74.1422 11.0757 11.7257 -74.3654 11.5757 12.2257 
-74.2788 11.0757 12.2257 -73.0386 10.4325 9.72569 -73.3344 10.0757 10.2257 
-73.5386 10.0757 10.5625 -73.6212 10.0757 10.7257 -73.8492 10.0757 11.2257 
-74.0386 10.5757 11.6017 -72.7594 10.5757 9.22569 -72.5386 10.5757 8.95867 
-71.7144 10.5757 8.22569 -71.5386 10.5757 8.09021 -71.207 11.0757 7.72569 
-71.0386 11.5757 7.49213 -72.287 10.5757 8.72569 -72.0386 10.5757 8.49957 
-77.1427 15.5757 12.2257 -77.0386 15.2007 12.2257 -77.1514 15.7824 12.0189 
-70.5386 15.2433 5.22569 -70.5386 15.5757 5.12569 -71.0386 15.5244 4.67371 
-70.943 15.5757 4.72569 -70.5386 14.0757 5.77285 -70.5386 13.5757 6.1509 
-70.5386 15.0757 5.27512 -70.0386 14.369 5.72569 -70.0386 14.5757 5.62578 
-70.0386 15.0757 5.52456 -70.5386 13.4525 6.22569 -70.5386 11.7648 7.22569 
-70.0386 12.0757 6.94325 -70.0386 12.5757 6.73292 -70.0386 13.0757 6.42904 
-76.3257 14.0757 12.7257 -76.0386 13.7281 12.7257 -76.6952 14.5757 12.7257 
-76.5386 14.3566 12.7257 -77.0386 15.165 12.7257 -75.8727 13.5757 12.7257 
-75.0386 12.5837 12.7257 -75.73 13.5757 13.2257 -75.5386 13.3538 13.2257 
-75.3336 13.0757 13.2257 -75.0386 12.648 13.2257 -74.6439 12.0757 12.7257 
-74.5386 11.8808 12.7257 -74.0883 10.5757 11.7257 -74.2121 10.5757 12.2257 
[...]
POINT_DATA 3627
SCALARS scalars float
LOOKUP_TABLE default
-0.935359 -0.937498 -1.01004 -0.358638 -0.957793 -0.366283 -1.50498 -0.952985 -0.563004 
-1.386 -1.65262 -0.32875 -0.271519 -1.60418 -0.967386 -0.652869 -0.389026 1.38778e-17 
0 2.77556e-17 -1.05987 -1.68752 -0.932892 -0.30402 -0.638199 -1.61161 -1.97596 
0 1.38778e-17 0 0 1.38778e-17 -1.59992 -1.72087 -2.29824 -1.04707 
-0.410868 -1.38778e-17 -1.45961 -1.74028 -1.99523 -0.888887 -1.38778e-17 -0.282328 -0.240799 
-0.211085 -2.34137 -1.56808 -2.02617 -1.43011 -2.2971 -2.30472 -2.77638 -0.963437 
-1.38778e-17 -0.421903 -1.38778e-17 0 -1.00496 -1.33316 -1.65557 -1.72859 -2.36915 
-2.45224 -1.85988 -0.863901 -0.416765 -1.38778e-17 1.38778e-17 -1.38778e-17 -0.199412 0 
-2.48221 -1.56701 -2.21935 -2.31627 -2.54194 -2.75499 -3.07073 -2.9577 -3.20654 
-3.21587 -3.16708 -0.984906 -0.837999 -0.430041 2.77556e-17 1.38778e-17 -1.517 -0.800353 
-0.784145 -0.919893 -2.16628 -2.45157 -2.33915 -0.18719 1.38778e-17 2.77556e-17 0 
-1.38778e-17 -1.57621 -1.66867 -2.29964 -3.11247 -3.14948 -2.45344 -3.03632 -2.77645 
-3.19304 -3.82635 -3.63927 -3.97485 -0.991751 -0.449437 1.38778e-17 -1.56235 -0.743879 
-0.175497 -0.28781 -1.08062 -1.48181 -1.69206 -2.30099 1.38778e-17 -1.59863 -1.85775 
-2.27997 -3.38211 -3.67518 -2.29655 -2.68539 -3.033 -2.96704 -3.32814 -3.74919 
-3.1823 -3.04989 -3.35088 -3.9883 -3.93433 -3.8787 -4.28296 -4.05749 -0.998006 
-1.14685 -0.475281 2.77556e-17 -1.38778e-17 -0.676526 1.38778e-17 0 2.77556e-17 -2.77556e-17 
-0.448145 0 -0.745115 -1.24499 -1.40268 -1.87952 -2.22497 -2.51544 -3.02184 
-1.62162 -1.99091 -1.37933 -3.83813 -3.77062 -2.31242 -2.86004 -2.98224 -3.48399 
-3.69506 -3.68449 -3.94053 -4.4452 -3.6073 -3.8388 -4.10271 -4.02659 -4.20325 
-3.95679 -3.73858 -3.74266 -3.86485 -1.02311 -2.77556e-17 -0.516635 -0.473988 -0.0907021 
1.38778e-17 -0.537648 0 1.38778e-17 -0.784582 -1.43024 -2.0502 -2.19406 -2.92965 
-2.73178 -2.86965 -3.20527 -1.65278 -2.15733 -1.06898 -1.51907 -4.36557 -3.03605 
-2.33549 -3.56698 -3.74849 -4.202 -4.44312 -4.35767 -4.44589 -4.01885 -3.79586 
-3.79092 -3.97937 -3.57486 -3.47217 -3.73794 -3.64569 -3.89116 -3.64857 -3.40911 
-3.34904 -0.665865 -0.55675 -0.0955975 -0.122184 0 -1.38778e-17 1.38778e-17 -0.687941 
-4.16334e-17 0 -0.104318 -1.44157 -1.58225 -0.904427 -2.2692 -2.8801 -3.49305 
-3.47757 -1.7076 -1.12582 -0.763449 -1.59164 -2.38897 -3.05432 -3.72074 -4.43586 
-4.3857 -4.29144 -4.51636 -3.44352 -3.75987 -3.2561 -3.23942 -3.51586 -3.02428 
-3.13791 -3.21545 -2.81576 -0.603794 0 -0.122026 1.38778e-17 0 0 
-0.331503 6.93889e-18 1.38778e-17 1.38778e-17 -0.214792 -1.15508 -1.7629 -2.32372 -0.96184 
-2.96243 -3.56472 -3.47157 -3.26288 -3.0749 -1.77583 -1.20307 -0.65438 -1.64911 
-2.42281 -3.10304 -3.79722 -4.43947 -4.7624 -4.17715 -3.02266 -3.11594 -3.29744 
-4.02529 -3.58069 -3.08387 -2.71626 -3.02786 -3.37877 -2.67683 -2.40961 -2.87538 
-2.79723 -2.56345 -0.165408 -0.589534 0 -1.38778e-17 -0.631852 0 2.77556e-17 
2.77556e-17 1.38778e-17 -0.270425 -1.84267 -1.46027 -2.41802 -2.83284 -0.936898 -3.18955 
-3.31477 -3.16389 -3.03557 -2.93588 -2.82456 -2.49325 -1.87068 -1.29382 -1.64454 
-0.669081 -0.74696 -2.50757 -2.40381 -3.82112 -3.08663 -3.28766 -4.4573 -4.6231 
-4.12763 -4.3066 -5.01829 -4.60443 -2.60701 -2.55442 -2.75327 -2.84971 -3.1559 
-3.80715 -2.51117 -2.38406 -2.02895 -1.9652 -2.30725 -2.71719 -2.26615 -2.15751 
-0.234374 -0.615749 0 -0.872295 -0.599189 1.38778e-17 -0.239078 -1.76747 -2.10002 
-1.01159 -1.23832 -1.12531 -0.824276 -2.19334 -2.75324 -2.89457 -2.62223 -2.18244 
-1.98188 -2.41597 -1.3851 -1.64287 -0.732262 -2.62699 -3.89379 -2.78239 -3.06806 
-3.40792 -3.92013 -4.52798 -4.74591 -3.88595 -4.19406 -5.05367 -4.91214 -4.5137 
-2.02253 -2.26923 -2.31804 -1.8903 -2.10395 -2.37406 -2.73715 -3.35854 -3.44897 
-1.95265 -1.77831 -1.5102 -1.7046 -1.75431 -1.33733 -2.25791 -2.58157 -2.11837 
-1.38778e-17 -0.316768 2.77556e-17 -0.723132 -0.144795 -0.227144 -1.38778e-17 1.38778e-17 -1.41678 
-1.86285 -1.77633 -0.930443 -1.09267 -0.513354 -0.495954 -0.232672 -2.5333 -2.44326 
-2.73333 -2.29532 -2.56945 -2.604 -2.32037 -1.88652 -1.58846 -2.13063 -2.35438 
-1.67419 -1.48351 -0.925407 -0.760961 -2.94155 -3.05641 -3.54516 -3.91721 -4.62088 
-4.13942 -4.82646 -5.111 -3.80123 -4.13661 -5.2252 -4.84655 -4.48807 -1.508 
-1.55569 -1.81494 -1.46607 -1.36755 -1.66978 -2.17768 -3.07972 -2.6951 -2.33526 
-3.1783 -1.30172 -1.03811 -1.24509 -1.6558 -1.3014 -0.855392 -2.01405 -0.421866 
1.38778e-17 1.38778e-17 -1.38778e-17 0 6.93889e-18 -1.38778e-17 0 -0.114483 0 
-1.4737 -0.761039 -0.795778 -0.423703 -0.429959 -0.0130611 -4.16334e-17 6.93889e-18 -1.38778e-17 
-1.98118 -1.84021 -2.45032 -2.12937 -2.3644 -1.68162 -2.04326 -1.61046 -1.26381 
-2.29888 -1.71025 -1.61513 -1.04379 -0.937885 -0.549123 -3.03718 -3.69798 -3.92959 
-4.27425 -4.71882 -4.88147 -4.82614 -5.19459 -5.54546 -3.42227 -3.76729 -4.14205 
-5.18678 -4.84246 -4.51659 -1.06408 -0.840701 -1.07343 -0.917939 -0.837914 -1.24118 
-1.9908 -1.57345 -2.32211 -2.88814 -2.97695 -1.94694 -1.72493 -0.549709 -0.602023 
-0.675649 -0.764517 -1.20613 -1.04697 -1.51314 -0.728298 0 -6.93889e-18 -1.19003 
-1.10948 -0.609935 -0.506432 -0.0871002 -1.38778e-17 0 -0.0467638 1.38778e-17 2.77556e-17 
0 0 0 0 -1.37959 -2.13101 -1.9501 -1.95783 -1.22429 
-1.12524 -1.35491 -1.50975 -1.74089 -1.34298 -2.32907 -2.51289 -1.72332 -1.22381 
-0.904614 -0.72498 -0.271928 -0.0704699 0 -2.99689 -3.12956 -3.87446 -3.34312 
-4.49 -4.70999 -4.85452 -5.29679 -5.73364 -5.53651 -3.04982 -3.42462 -3.81145 
-4.19563 -5.20544 -4.87872 -4.56481 -0.387335 -0.681731 -0.496303 -0.63436 -0.305309 
-0.82638 -1.18801 -1.95897 -2.69791 -2.36938 -3.09335 -1.57689 -1.38742 -0.153449 
-0.0203872 -2.08167e-17 1.38778e-17 -0.383804 -0.343358 -0.265027 -0.604916 -0.55022 -0.918038 
-0.164074 -0.921666 -0.454731 -0.242675 -0.6513 -0.0633192 0 0 0 
-6.93889e-18 -1.77094 -1.82502 -1.42168 -1.4249 -0.729616 -1.03193 -0.563115 -0.850249 
-1.03496 -2.07837 -1.80539 -2.32434 -2.76244 -2.94348 -1.71475 -1.50992 -0.839647 
-0.561523 -0.668713 -1.38778e-17 0 -0.225811 0 -6.93889e-18 0 -4.13923 
-3.82643 -3.59674 -3.10384 -2.90211 -4.66477 -5.02371 -5.19606 -5.42576 -5.8513 
-5.88957 -5.5725 -3.4866 -3.86829 -4.22963 -5.10772 -4.62669 -6.93889e-18 0 
-0.43565 -0.289554 -0.0942386 -1.38778e-17 -2.77556e-17 -0.183544 -2.08167e-17 -0.814888 -1.60757 
-2.0174 -2.76591 -2.37606 -3.15501 -1.22309 -1.10227 -3.46945e-18 1.38778e-17 0 
0 0 2.08167e-17 -2.77556e-17 0 -6.93889e-18 -0.0752634 -1.38778e-17 -0.0218431 
-2.77556e-17 1.38778e-17 -0.288282 -0.369806 -0.343798 -0.706833 6.93889e-18 -2.77556e-17 0 
1.38778e-17 -0.339498 2.77556e-17 -1.7108 -1.29699 -1.55492 -1.45048 -1.12996 -0.204365 
-0.0783952 2.77556e-17 6.93889e-18 -0.0959685 -0.351652 -0.178765 -0.58402 -1.0383 -0.722777 
-2.26534 -1.88932 -1.56985 -0.984949 -0.941337 -0.453599 -1.3474 0 -0.0170221 
-4.42924 -4.64486 -4.71727 -3.73763 -3.4875 -3.51993 -2.90044 -2.8289 -2.83801 
-2.49321 -5.59878 -5.39774 -5.78425 -4.947 -5.98339 -5.94781 -5.47183 -3.53596 
-3.71781 -4.14572 -4.99615 -4.51139 -0.0757496 -0.454331 1.38778e-17 -6.93889e-18 0 
1.38778e-17 0 2.77556e-17 6.93889e-18 -0.874673 -1.26758 -1.66248 -2.06374 -2.43199 
-2.81424 -3.18028 1.38778e-17 0 -3.46945e-18 3.46945e-18 1.38778e-17 -1.38778e-17 0 
2.77556e-17 -1.3334 -1.15051 -0.902675 -0.457475 2.77556e-17 -1.38778e-17 0 -6.93889e-18 
0 2.77556e-17 0 -0.215386 -1.38778e-17 -0.110168 -0.341913 -0.398483 -0.708918 
-1.38778e-17 -2.19609 -2.20894 -1.59657 -1.53455 -1.38318 -1.15928 -0.669527 -0.587482 
0 0 0 -0.50377 -2.77556e-17 -3.9336 -4.58243 -5.2528 -3.8922 
-3.42667 -3.41684 -2.84043 -2.80697 -2.22646 -6.16073 -5.62037 -6.0135 -6.28014 
-5.8534 -5.37068 -4.887 -3.20846 -3.63656 -4.0368 -3.53946 -4.39505 -3.91974 
-6.93889e-18 -6.93889e-18 -0.141491 -0.524003 -0.996246 -1.11112 -1.31372 -1.70227 -2.44093 
-2.03604 -2.65398 -2.78833 -2.7183 -1.15794 -0.839189 -0.696103 -0.220909 2.77556e-17 
1.38778e-17 0 -1.38778e-17 0 -1.38778e-17 -0.248112 -0.395932 6.93889e-18 0 
-1.78279 -1.65192 -1.69654 -1.63979 -1.03664 -0.654896 -1.63558 -0.537395 -0.471418 
2.77556e-17 -4.31109 -4.45673 -4.80298 -5.47676 -4.40295 -4.23004 -3.89586 -3.42824 
-4.18745 -2.30247 -2.9715 -3.3546 -3.52951 -5.79559 -6.22031 -5.87118 -6.45551 
-6.231 -5.74776 -5.30917 -4.81562 -3.12951 -2.70881 -3.03071 -3.42799 -2.92102 
-4.32222 -3.83192 0 -1.38778e-17 -0.211673 -0.928432 -0.590736 -1.23542 -0.964958 
-1.16008 -1.3107 -1.57488 -2.20361 -1.69088 -2.41594 -0.942488 -0.555328 -0.510986 
-0.0963342 -0.172583 -1.38778e-17 0 0 -1.95515 -2.3187 -2.41616 -1.00399 
-1.60099 -1.55584 -2.18273 -0.570276 3.46945e-18 -0.0856969 -4.73793 -5.16995 -5.57316 
-4.32487 -4.11553 -3.57433 -4.53224 -4.88323 -2.89473 -2.38385 -2.99056 -3.63823 
-5.25924 -6.28546 -6.25815 -6.58824 -6.21008 -5.45569 -5.70004 -4.76129 -2.64212 
-2.54418 -2.40829 -2.4395 -3.32554 -2.83152 -4.26747 -3.768 2.77556e-17 -0.250126 
1.38778e-17 -0.595251 -0.876244 -1.08679 -1.17116 -2.20933 -1.69852 -1.18526 -2.14948 
-0.474486 -0.294256 -0.541497 -0.412193 1.38778e-17 0 -0.460928 6.93889e-18 6.93889e-18 
-6.93889e-18 0 1.38778e-17 -2.44735 -2.53755 -2.91363 -3.12541 -1.08826 -1.70777 
-1.60515 -2.12647 -2.55109 -1.08371 -0.768281 -0.135773 -0.3173 -1.38778e-17 0 
0 -5.0579 -5.60184 -5.92317 -3.98696 -4.12991 -4.69761 -4.62085 -5.48272 
-5.51231 -5.23017 -3.5254 -3.64979 -4.19708 -5.20418 -6.61585 -6.60562 -6.1202 
-6.17947 -5.63233 -5.14462 -4.71071 -4.55733 -4.22554 -2.3536 -2.05054 -2.33887 
-2.04916 -2.09578 -3.26867 -2.78409 -2.68552 -2.31484 -3.74346 0 -2.77556e-17 
-0.188944 -0.435209 -0.672507 -0.647206 -0.656546 -0.681006 -1.64647 -1.15033 -0.660984 
-0.303423 -1.38778e-17 2.77556e-17 -6.93889e-18 -0.0664819 -0.145049 -0.105087 -1.38778e-17 -3.26724 
-2.7751 -3.7537 -3.78536 -1.21675 -1.57139 -2.16675 -2.68166 -0.899017 -1.27392 
-1.48149 2.77556e-17 0 0 -2.77556e-17 -0.479641 -6.21492 -5.98269 -5.70093 
-6.30698 -4.13732 -5.20745 -4.9029 -4.34766 -4.64678 -5.31566 -6.09922 -6.04336 
-6.28427 -3.87306 -4.20985 -4.65336 -6.70217 -6.55086 -6.06141 -6.58625 -5.57466 
-5.08568 -4.59035 -4.15535 -4.21024 -3.71546 -1.5505 -1.95227 -1.44942 -1.78735 
-1.84614 -3.21691 -2.7217 -2.28791 -2.24376 1.38778e-17 0 0 6.93889e-18 
-0.0937547 -0.14273 -0.267217 -1.05525 -0.177268 -0.563296 -0.201188 -3.46945e-18 -6.93889e-18 
0 0 6.93889e-18 1.38778e-17 -6.93889e-18 0 0 1.38778e-17 6.93889e-18 
-3.55806 -3.38686 -3.30485 -3.85398 -4.25093 -1.77519 -2.29418 -2.71268 -2.5119 
-0.964664 -0.84684 -1.66373 -1.1441 -1.98116 -2.04453 -1.85921 -2.77556e-17 -0.636704 
-0.34108 -6.47441 -6.71229 -5.18165 -5.15211 -4.66076 -5.89442 -6.42604 -6.7353 
-6.83713 -6.70619 -6.52417 -6.96972 -6.03192 -6.48508 -5.41136 -5.51494 -5.0218 
-4.09897 -4.52525 -4.03036 -3.65588 -1.33761 -0.949334 -1.27599 -1.7466 -3.15454 
-2.66693 -2.19046 6.93889e-18 1.38778e-17 0 0 0 -0.161213 0 
2.77556e-17 -2.77556e-17 -2.77556e-17 -0.0594683 -0.439707 -0.290853 1.38778e-17 0 -3.94101 
-3.50492 -3.33803 -3.50178 -4.3223 -4.21963 -4.37015 -4.71661 -4.54997 -4.75504 
-2.37618 -2.1364 -2.87543 -1.76708 -1.26811 -0.681432 -2.20669 0 -0.271706 
-5.55112e-17 0 2.77556e-17 -6.79606 -7.20564 -7.15086 -6.96919 -5.70943 -5.6717 
-5.48876 -4.97763 -5.1778 -5.80366 -6.30752 -7.12518 -7.36483 -6.96928 -6.64462 
-7.35179 -7.17157 -5.99689 -6.39932 -5.91653 -6.57271 -6.93024 -5.00511 -5.43358 
-3.59616 -4.45628 -3.95989 -3.53792 -0.838807 -0.766028 -1.22487 -1.69621 -3.09615 
-2.60892 -2.11479 -6.93889e-18 6.93889e-18 6.93889e-18 -0.253374 -1.38778e-17 0 -4.05047 
-4.02357 -4.01615 -3.44797 -4.11319 -4.43272 -4.57238 -4.93652 -4.79455 -5.29627 
-2.53264 -3.05261 -1.73032 -2.44857 -1.64901 -1.33601 -0.662625 -0.718967 -2.79559 
-2.7948 -2.55871 -0.182569 -1.38778e-17 0 -7.35865 -5.65505 -6.20725 -5.68982 
-5.19695 -6.57527 -7.49614 -7.41693 -7.46457 -7.50297 -6.94279 -7.33798 -7.82865 
-8.00414 -8.00627 -6.37521 -5.84802 -6.87635 -6.29233 -4.94676 -5.43265 -5.33608 
-4.85394 -4.36519 -3.46129 -3.86746 -3.04391 -2.97633 -0.262743 -0.296365 -0.723803 
-0.457952 -1.17403 -0.684748 -0.784711 -1.63018 -1.14003 -2.55206 -2.54817 -2.07615 
2.77556e-17 -4.12563 -3.6586 -4.12297 -4.65987 -4.7697 -4.95773 -5.03293 -4.85105 
-5.23289 -5.67077 -5.38271 -3.37198 -1.99623 -2.49914 -2.33062 -1.52309 -2.08339 
-1.39237 -0.711501 -3.05014 -0.119471 -6.93889e-18 -6.93889e-18 -7.30473 -6.45272 -6.21049 
-6.14646 -5.77398 -6.78565 -7.72362 -7.83627 -8.0043 -7.34577 -8.04538 -7.55667 
-8.14996 -7.99986 -8.44196 -8.62142 -5.81419 -6.89579 -6.76821 -6.74328 -6.19134 
-6.02933 -5.22335 -4.81331 -4.32447 -3.84356 -3.37214 -2.88484 -3.35464 -2.48368 
0 0 -2.77556e-17 -0.223871 -0.182738 -0.673203 -0.598011 -1.09913 -1.53512 
-2.0535 -3.86104 -3.80031 -4.02004 -4.28262 -4.7507 -5.32102 -4.97304 -5.07568 
-5.20348 -5.53947 -5.4271 -5.79249 -5.85358 -3.54094 -3.41364 -2.71006 -2.21707 
-1.4711 -1.97929 -2.10469 -1.27037 -0.723856 -3.22667 -0.101538 -6.93889e-18 -7.2452 
-6.70832 -6.25136 -7.36282 -7.35638 -7.22115 -7.67675 -7.58359 -7.88255 -8.14614 
-7.93484 -8.14993 -8.51291 -8.05273 -8.08751 -8.69528 -8.83472 -8.47789 -8.2319 
-5.69741 -6.64658 -6.03686 -6.26231 -5.66739 -5.56576 -5.14471 -4.7473 -4.25205 
-3.75605 -3.27111 -2.85903 -2.37134 -2.392 -1.98057 0 -2.77556e-17 -0.132328 
0 -1.38778e-17 -0.526755 -1.02163 -1.4688 -3.91167 -4.52625 -4.27299 -5.68001 
-5.77588 -5.31711 -5.79859 -5.24273 -5.99801 -5.88799 -6.06113 -6.31364 -6.25598 
-3.65303 -2.80403 -3.12839 -2.90613 -2.75399 -1.43672 -1.67433 -1.76207 -2.4877 
-2.02081 -1.04995 -0.74987 -0.751292 -0.636692 -3.29844 -3.84367 -1.38778e-17 0 
-0.148683 -1.38778e-17 -7.11506 -6.71863 -7.41248 -7.16991 -7.06245 -7.51458 -6.96235 
-7.7369 -7.41503 -7.74461 -8.39998 -8.23668 -7.89176 -8.93931 -8.83459 -8.83673 
-8.75176 -8.14442 -7.84148 -8.14682 -6.54509 -6.00517 -6.50281 -6.08231 -6.37948 
-5.8731 -5.09254 -5.47552 -4.63505 -4.15182 -3.30269 -3.661 -3.16124 -2.67515 
-2.78137 -2.28614 -1.89538 -1.7913 -1.66605 1.38778e-17 0 -1.38778e-17 -0.0554938 
-0.464896 -0.40303 -2.08167e-17 3.46945e-18 -0.963023 -0.93642 -1.40949 -4.57998 -4.32419 
-5.23968 -4.18804 -6.23168 -5.94496 -5.7785 -6.14132 -6.58376 -6.40948 -6.77046 
-6.78502 -6.43895 -3.20419 -2.93281 -1.05842 -1.23722 -1.3228 -2.09332 -2.78792 
-2.29053 -1.58308 -0.834041 -0.679886 -0.454808 -0.266501 -3.31195 -3.52496 2.77556e-17 
-0.189646 -6.99794 -7.42362 -7.18675 -6.93846 -6.74764 -7.31548 -7.65031 -7.63904 
-8.10645 -8.43022 -8.77489 -8.7306 -8.58704 -8.89513 -8.93365 -8.74158 -8.28602 
-8.41232 -8.15494 -7.77479 -6.31877 -5.83168 -5.66193 -6.19814 -5.41306 -5.30048 
-4.87635 -4.95322 -4.47026 -4.12561 -3.64022 -3.5117 -3.03782 -2.1823 -2.54621 
-2.06348 -1.69294 -1.69164 -1.21838 -1.29895 -1.39409 6.93889e-18 -0.392367 -2.25514e-17 
1.38778e-17 -0.891914 -4.84144 -4.89994 -5.21369 -4.2473 -4.11062 -6.67559 -6.25858 
-6.69994 -5.99405 -5.23691 -5.93468 -5.50142 -6.84418 -6.9611 -3.35808 -3.08725 
-0.613524 -0.784417 -0.879254 -1.83235 -2.48526 -2.33423 -1.13728 -1.37699 -0.444467 
-0.0933209 0 0 -3.65654 0 0 1.38778e-17 -7.24061 -7.621 
-7.1447 -6.30765 -6.49954 -7.27447 -7.43772 -7.45636 -8.07261 -8.5136 -9.15254 
-9.03378 -8.94437 -9.21768 -8.68401 -9.10965 -8.14365 -8.09588 -8.03193 -7.43858 
-7.86213 -5.54264 -5.21028 -5.43733 -6.05474 -4.76637 -4.30868 -3.98526 -3.9608 
-3.83793 -3.45697 -2.95585 -1.57714 -2.4734 -1.97666 -1.19171 -0.809287 -0.7318 
-0.704022 -1.38778e-17 -1.38778e-17 -0.315657 -4.79388 -5.1945 -4.55297 -3.87186 -7.07448 
-6.90732 -6.25042 -6.47292 -5.71081 -5.06344 -5.17235 -5.0095 -7.32208 -7.42271 
-3.37296 -3.21159 -2.56111 -0.10916 -0.199536 -0.323484 -0.439846 -2.07066 -1.60769 
-2.15946 -2.81807 -2.31241 -0.690018 -0.743619 -0.927164 -1.15681 2.77556e-17 -1.38778e-17 
0 0 0 6.93889e-18 -7.65826 -7.06302 -5.96299 -6.437 -6.24539 
-7.27364 -6.8363 -8.08306 -8.49535 -8.91994 -9.43875 -9.50122 -9.40174 -9.22604 
-8.65235 -8.53805 -8.80616 -7.45358 -8.02385 -7.34936 -7.64652 -7.42731 -7.34455 
-5.13199 -4.6045 -5.01491 -5.32196 -4.26371 -3.3579 -3.75983 -2.88182 -2.39718 
-1.08327 -1.47849 -1.92005 -0.262035 -0.247107 -0.601363 -2.77556e-17 -2.77556e-17 -4.86634 
-4.53258 -3.96565 -3.79662 -7.08691 -6.68986 -5.76442 -6.00937 -6.25293 -5.67464 
-4.90549 -5.48326 -4.79171 -4.56589 -4.33956 -7.72824 -7.64257 -3.62281 -3.09347 
-3.08407 -2.97408 0 1.38778e-17 -2.77556e-17 0 6.93889e-18 -1.38778e-17 0 
0 -1.38778e-17 -0.239303 -1.82199 -1.77224 -2.55034 -2.06526 -0.32202 -0.485412 
-0.711169 -0.930598 -1.38307 -6.76567 -5.61219 -5.71732 -5.92764 -6.36577 -6.73257 
-6.7356 -8.13588 -8.40373 -8.59811 -9.36311 -9.7636 -9.43673 -8.80329 -7.91708 
-8.21438 -8.48321 -7.87147 -9.34841 -9.02951 -6.93056 -7.27001 -7.08265 -7.15809 
-7.30542 -6.70631 -4.93366 -4.51546 -4.09281 -4.66568 -5.19308 -3.96751 -3.26497 
-3.62877 -3.17022 -2.76465 -1.7879 -2.27489 -0.529579 -0.997653 -1.45281 -1.30213 
-2.77556e-17 0 2.77556e-17 -0.144481 -0.0993611 -4.38751 -4.22876 -7.26864 -6.88338 
-6.45434 -5.74084 -5.97984 -5.49156 -4.89925 -4.75579 -4.29613 -4.11972 -4.19624 
-3.96809 -7.8317 -7.45137 -3.53071 -3.36148 -2.91382 0 0 2.77556e-17 
0 -1.38778e-17 -1.565 -2.80118 -2.29584 -1.83119 -1.38778e-17 0 -0.0918887 
-0.270002 -0.480471 -1.1525 -0.700151 -5.41053 -5.88273 -5.95325 -6.41258 -8.01258 
-8.20802 -8.4038 -9.22923 -9.54247 -9.64338 -8.99604 -9.2308 -8.58549 -8.40939 
-7.78063 -8.78798 -6.5856 -6.73755 -6.57793 -6.48255 -7.0935 -6.04097 -4.38425 
-3.87933 -4.35953 -4.56583 -4.79856 -4.92766 -3.58847 -2.70991 -3.08606 -2.23723 
-1.75651 -6.93889e-18 -0.479592 0 -0.816283 -1.27254 0 0 -1.38778e-17 
1.38778e-17 -7.07444 -6.6603 -6.2201 -5.52095 -5.52125 -5.15725 -4.70999 -4.67644 
-4.07136 -3.67415 -3.49147 -7.64067 -7.26165 -1.37078 -3.07052 -2.81622 -2.54034 
-2.06262 -1.54989 0 1.38778e-17 0 -1.38778e-17 -3.46945e-18 -0.0344878 -0.248599 
-0.918302 -0.479865 -5.05519 -4.86958 -5.49395 -5.57087 -5.88039 -7.83291 -8.01306 
-8.18906 -9.0598 -9.33101 -9.62663 -9.1728 -8.70755 -9.29496 -8.30636 -8.30829 
-8.19862 -7.57732 -7.67865 -8.12846 -8.6323 -8.72265 -6.21052 -6.3244 -6.43222 
-5.89422 -7.04932 -5.78974 -4.20323 -3.79492 -3.37231 -4.14463 -3.9003 -4.41719 
-4.61479 -2.93467 -2.56856 -2.49635 -1.57085 -2.0595 -6.93889e-18 -2.77556e-17 -0.329361 
-0.790119 -1.09899 -0.625724 -1.06183 -6.86975 -6.46555 -5.74631 -6.01835 -5.45213 
-5.52004 -4.91793 -3.98509 -4.03141 -4.6993 -4.31539 -3.47221 -3.46095 -7.44841 
-7.07734 -3.36773 -2.79244 -2.29012 -1.58024 -1.82263 -1.13214 0 0 
0 2.77556e-17 1.38778e-17 0 -0.153207 -0.703858 -4.96098 -4.68551 -5.13065 
-4.94379 -5.20707 -4.9516 -7.62776 -7.79912 -9.20623 -9.54524 -9.46017 -8.76586 
-8.92094 -9.28584 -8.97037 -7.92655 -8.36057 -7.54371 -7.94452 -6.93208 -7.29352 
-7.96179 -7.71841 -8.48258 -8.94119 -5.74929 -5.60745 -6.26102 -5.44695 -5.60194 
-6.68329 -3.63502 -3.12365 -2.86922 -3.575 -3.77831 -3.92531 -4.13708 -4.03143 
-4.24194 -3.99103 -2.356 -1.85205 -1.34547 -1.10817 -1.38778e-17 -0.141842 0 
-0.0432405 -0.890228 -0.436752 -6.68019 -6.25643 -5.51212 -5.81676 -5.21283 -4.09761 
-3.47129 -4.77167 -4.62455 -4.22023 -7.25363 -2.90599 -1.94877 -2.51041 -1.72875 
-1.34979 -1.38778e-17 -0.324588 0 0 -0.911746 -4.03316 -4.29656 -4.02831 
-4.8722 -4.74553 -4.39361 -5.37387 -7.4192 -9.12264 -9.02068 -8.66401 -8.53141 
-8.69561 -8.57099 -7.55362 -7.96865 -7.35929 -6.77548 -6.43329 -7.05166 -7.74811 
-8.09774 -7.18109 -7.51307 -8.22698 -8.63488 -8.75016 -5.07694 -6.21463 -4.82228 
-5.24815 -5.34036 -5.86538 -6.08054 -3.44187 -3.06103 -2.77956 -2.64912 -2.23129 
-3.38155 -3.1162 -3.61876 -3.3144 -3.77395 -3.41114 -1.79733 -1.12121 -0.766677 
0 0 0 0 6.93889e-18 0 -0.377625 -0.64404 -2.08167e-17 
-6.8659 -6.45667 -5.65367 -4.9727 -6.04026 -5.92836 -4.79178 -3.66639 -3.95213 
-3.53901 -4.29977 -4.84322 -2.99141 -2.14483 -2.02681 -1.55686 -2.53344 -2.73358 
-3.16329 -0.526516 2.77556e-17 2.77556e-17 -2.77556e-17 -1.10761 -3.96493 -3.86218 -3.49512 
-4.78101 -3.95704 -3.81809 -4.07354 -7.03423 -7.11688 -8.79983 -8.5798 -8.31065 