# vtk DataFile Version 4.2
3D Slicer output. SPACE=LPS
ASCII
DATASET POLYDATA
POINTS 1094 float
-3.07673 3.73552 -9.64237 -3.06715 3.72808 -9.64423 -3.07764 3.73342 -9.64898 
-3.24163 3.8815 -9.61153 -2.91016 3.6147 -9.67546 -2.9449 3.58532 -9.83473 
-3.25194 3.88524 -9.62216 -3.19239 3.74139 -9.86067 -3.25428 3.89303 -9.60993 
-2.72844 3.5046 -9.6975 -3.09054 3.59364 -10.0558 -2.72875 3.44161 -9.91217 
-2.87722 3.4504 -10.0975 -3.39353 3.91299 -9.84617 -3.46318 4.07528 -9.63701 
-3.44528 4.07025 -9.61162 -3.3695 3.72368 -10.1611 -2.69548 3.485 -9.70145 
-3.08027 3.46887 -10.2717 -2.64668 3.34644 -10.0827 -2.4554 3.34176 -9.84207 
-2.77177 3.2589 -10.356 -3.57207 4.00718 -9.99124 -3.50917 4.03593 -9.81738 
-3.59106 4.12893 -9.79458 -3.62664 4.23426 -9.6568 -3.59624 4.20677 -9.64894 
-3.4703 4.09439 -9.61527 -3.32388 3.47424 -10.4319 -3.52229 3.64378 -10.4063 
-3.56128 3.7644 -10.3175 -3.60113 3.87859 -10.2236 -2.64339 3.46052 -9.7079 
-3.09179 3.31609 -10.4623 -2.3789 3.2265 -10.1524 -2.19936 3.23546 -9.90608 
-2.44258 3.36589 -9.73252 -2.32228 3.31941 -9.75144 -2.72376 3.01648 -10.617 
-3.01632 3.13058 -10.5956 -2.3825 3.0781 -10.4808 -3.76459 4.05992 -10.1977 
-3.75275 4.25039 -9.88925 -3.63148 4.23844 -9.65852 -3.29343 3.25184 -10.6117 
-3.59431 3.44743 -10.6288 -3.73343 3.79353 -10.4549 -2.09247 3.17498 -10.0658 
-2.09257 3.12334 -10.2922 -2.16253 3.25703 -9.77653 -1.96656 3.1813 -9.85867 
-2.97903 2.87412 -10.7614 -2.73041 2.84038 -10.752 -2.46477 2.84146 -10.7432 
-3.22367 3.04447 -10.7249 -2.07064 3.04392 -10.5138 -2.18089 2.94851 -10.6638 
-3.98648 4.07235 -10.4784 -3.97101 4.31945 -10.1678 -3.76047 4.3617 -9.70932 
-3.96548 4.50877 -9.86597 -3.92826 4.49446 -9.81576 -3.48568 3.11756 -10.7758 
-3.79862 3.39437 -10.7964 -3.67263 3.25392 -10.7944 -3.89676 3.63303 -10.7304 
-3.95303 3.84241 -10.6386 -1.8255 3.11756 -10.0804 -1.78032 3.05531 -10.4263 
-1.99793 3.2031 -9.80634 -1.78339 3.13804 -9.85101 -1.93168 3.18107 -9.81869 
-3.07711 2.62441 -10.8828 -3.29404 2.84452 -10.8455 -2.75316 2.61023 -10.8672 
-2.39504 2.56812 -10.9277 -2.10088 2.77876 -10.8549 -1.90641 2.95411 -10.6858 
-4.12424 3.93818 -10.7448 -4.26293 4.19298 -10.7054 -4.15802 4.35417 -10.422 
-4.25007 4.64144 -10.1625 -4.21563 4.65962 -10.0764 -3.99004 4.54164 -9.86018 
-3.9657 4.52563 -9.84019 -3.63697 2.84645 -10.9499 -3.65569 3.10454 -10.8592 
-3.82313 3.17216 -10.919 -3.99736 3.43342 -10.9159 -4.03461 3.78599 -10.7591 
-4.1496 3.72125 -10.8983 -1.48077 3.06663 -10.1925 -1.62283 3.10759 -9.88978 
-1.76336 3.13509 -9.84872 -1.52449 3.04661 -10.4534 -1.53061 2.98782 -10.724 
-1.78276 3.13943 -9.84359 -3.02466 2.26206 -10.9571 -3.33395 2.55587 -10.9449 
-2.57983 2.29027 -10.997 -2.32445 2.36717 -11.0407 -2.10178 2.53051 -11.0348 
-1.86829 2.69625 -11.0147 -1.79173 2.84893 -10.8805 -4.33649 3.9647 -10.9352 
-4.43249 4.41389 -10.7251 -4.28447 4.40085 -10.563 -4.55893 4.19649 -10.981 
-4.25619 4.49093 -10.418 -4.37156 4.55135 -10.5001 -4.45398 4.69564 -10.3642 
-4.29823 4.68477 -10.164 -4.53523 4.70333 -10.4693 -4.26717 4.68246 -10.1292 
-4.24683 4.67536 -10.1073 -3.88052 2.77078 -11.0741 -3.77836 2.54549 -11.0627 
-3.56433 2.49761 -11.0042 -3.90571 2.96814 -11.0387 -4.06186 3.17685 -11.0613 
-4.2567 3.47583 -11.0956 -4.35152 3.75931 -11.0589 -1.16485 3.05512 -10.2079 
-1.29551 3.05539 -10.4588 -1.53604 3.09509 -9.91384 -1.28359 3.05871 -9.99643 
-1.14922 3.07245 -10.7312 -1.5553 2.77719 -11.0916 -1.2326 3.00187 -11.0041 
-3.00244 1.84333 -10.9529 -3.31983 1.94918 -10.9683 -3.409 2.25783 -10.994 
-2.69004 1.97979 -11.0089 -2.38257 2.07011 -11.0923 -2.36445 2.23655 -11.0719 
-2.09971 2.25465 -11.1602 -1.80058 2.49969 -11.1881 -4.52063 3.8994 -11.1313 
-4.49828 4.57761 -10.6404 -4.53192 4.5203 -10.746 -4.60317 4.44799 -10.851 
-4.73444 3.98596 -11.2301 -4.88355 4.22919 -11.138 -4.73769 4.38315 -10.9808 
-4.5483 4.703 -10.4892 -3.97755 2.60349 -11.1402 -4.09673 2.86386 -11.1638 
-3.67248 2.26027 -11.0498 -3.97292 2.27724 -11.1499 -4.28433 3.13932 -11.2221 
-4.49738 3.39064 -11.3095 -4.46006 3.6636 -11.19 -0.985517 3.0452 -10.1029 
-0.908151 3.08373 -10.4274 -1.17495 3.05488 -10.0356 -0.871067 3.13702 -10.7652 
-1.00653 3.10804 -10.9487 -1.59123 2.59463 -11.2522 -1.41231 2.61563 -11.3696 
-1.21741 2.8819 -11.264 -0.910222 3.09285 -11.1995 -2.98034 1.56906 -10.8983 
-3.27934 1.60199 -10.8997 -2.67879 1.63475 -10.9681 -3.62758 1.69255 -10.9693 
-3.56252 2.02125 -11.0121 -2.3958 1.7935 -11.0911 -2.06997 1.92516 -11.2416 
-1.82118 2.13709 -11.3452 -1.8617 2.30228 -11.2605 -1.72157 2.33408 -11.3304 
-1.60647 2.46849 -11.333 -4.64681 3.70814 -11.3052 -4.63431 4.60988 -10.7141 
-4.57774 4.69167 -10.5339 -4.77692 4.54346 -10.8529 -4.78637 4.52612 -10.8739 
-4.89077 3.77445 -11.3984 -4.88704 4.0166 -11.2904 -4.97304 4.10921 -11.236 
-4.92847 4.2282 -11.1451 -5.00751 4.01878 -11.3053 -4.91693 4.25536 -11.1222 
-4.89301 4.30928 -11.0828 -4.84131 4.4238 -10.9836 -4.16371 2.56448 -11.2348 
-4.34555 2.81212 -11.3225 -3.79276 1.96845 -11.0638 -4.02467 1.92471 -11.1396 
-4.21197 2.06345 -11.2402 -4.21655 2.33003 -11.2648 -4.45335 3.08532 -11.3579 
-4.6247 3.14501 -11.4628 -4.75227 3.44489 -11.4586 -0.923013 3.04841 -10.1238 
-0.553005 3.10604 -10.3816 -0.618466 3.15469 -10.6249 -0.695629 3.06079 -10.1984 
-0.661926 3.19036 -10.8473 -0.816803 3.16392 -10.9753 -1.18272 2.50872 -11.6765 
-1.51506 2.28602 -11.4985 -1.17239 2.76726 -11.4617 -0.994794 2.95063 -11.4314 
-0.793873 3.07391 -11.4595 -0.567853 3.22156 -11.0805 -0.583784 3.18278 -11.3969 
-3.12163 1.38133 -10.8249 -2.8053 1.31273 -10.8254 -3.31908 1.38701 -10.8293 
-3.55042 1.33106 -10.8281 -2.37948 1.55863 -11.0564 -2.45292 1.32281 -10.9436 
-3.9518 1.66721 -11.0614 -3.93168 1.32357 -10.9328 -2.1103 1.59872 -11.207 
-1.78668 1.70382 -11.4329 -1.82991 1.9301 -11.3853 -1.63242 1.96397 -11.5171 
-4.69342 4.64722 -10.6953 -4.75877 4.5667 -10.8212 -5.11054 3.61851 -11.4986 
-5.08375 3.74442 -11.4395 -4.99709 3.45776 -11.5526 -5.01829 3.98366 -11.3223 
-4.33412 2.51323 -11.3319 -4.52375 2.5897 -11.4492 -4.52723 2.90084 -11.4397 
-4.25414 1.67815 -11.1865 -4.44148 1.96212 -11.3405 -4.39044 2.27408 -11.3547 
-4.85397 3.15625 -11.5804 -4.69681 2.86491 -11.5489 -0.278549 3.16946 -10.5216 
-0.602192 3.07554 -10.2357 -0.455216 3.09862 -10.3076 -0.404182 3.22319 -10.8092 
-1.22736 2.22466 -11.7991 -1.3343 2.26038 -11.6724 -0.927841 2.52748 -11.9616 
-1.0603 2.28978 -11.956 -1.021 2.80367 -11.5973 -0.897801 2.75044 -11.7981 
-1.3727 2.03583 -11.7257 -0.833637 2.94502 -11.64 -0.60065 3.07812 -11.6666 
-0.262421 3.27987 -11.028 -0.263706 3.28395 -11.3209 -0.300352 3.19251 -11.671 
-3.31318 1.2177 -10.7478 -3.0609 1.1521 -10.7102 -2.82839 1.00614 -10.6326 
-2.55122 1.03939 -10.7411 -3.8053 1.04472 -10.73 -3.52801 1.02573 -10.6424 
-2.22916 1.40049 -11.0868 -2.3489 1.09418 -10.882 -2.16525 1.16789 -11.0365 
-4.12486 1.46109 -11.0712 -4.23691 1.27284 -11.0401 -4.18954 1.0478 -10.8859 
-3.97889 1.09115 -10.8312 -2.00888 1.32917 -11.2078 -1.84628 1.45107 -11.3661 
-1.51421 1.34874 -11.6359 -1.47343 1.73198 -11.6916 -5.14172 3.4576 -11.5856 
-5.1711 3.16759 -11.6527 -5.16365 3.34674 -11.6137 -4.75795 2.55244 -11.5905 
-4.62031 2.21964 -11.4806 -4.27268 1.42413 -11.1209 -4.49569 1.33278 -11.1662 
-4.56991 1.65939 -11.3267 -4.64827 1.90579 -11.4361 -4.92285 2.84527 -11.6546 
-0.279801 3.1497 -10.4406 -0.222818 3.16607 -10.4891 -0.180145 3.18183 -10.5308 
-0.0211336 3.26032 -10.7998 -1.14388 2.04685 -11.9693 -0.895323 2.33869 -12.1286 
-0.762588 2.5056 -12.1779 -0.742932 2.70956 -12.0277 -0.939969 2.11611 -12.1776 
-0.647651 2.89592 -11.9119 -1.22698 1.80331 -11.9399 -0.404455 3.03375 -11.9312 
-0.0152281 3.31827 -11.1545 -0.0228587 3.32749 -11.3564 -0.0235948 3.28876 -11.5532 
0.0291463 3.19544 -11.8478 -0.194669 3.11113 -11.9469 -3.27747 0.992109 -10.5962 
-3.05518 0.928042 -10.5476 -2.9086 0.778007 -10.4195 -2.63721 0.755058 -10.462 
-2.34029 0.938005 -10.7842 -2.41272 0.812263 -10.6349 -3.71936 0.762861 -10.4623 
-3.93846 0.827315 -10.6165 -4.01528 0.955008 -10.7547 -3.44611 0.791084 -10.4306 
-2.20613 0.985408 -10.9004 -1.86974 1.06422 -11.2101 -2.03736 0.947525 -11.0017 
-4.41771 1.10047 -11.0172 -4.21033 0.77217 -10.678 -4.54901 0.848586 -10.8824 
-1.78453 1.26593 -11.3663 -1.66196 1.11382 -11.4214 -1.50936 1.02431 -11.5407 
-1.22546 1.40871 -11.9587 -1.20385 1.18842 -11.9358 -1.33846 1.01548 -11.729 
-1.29749 1.57815 -11.8848 -5.26895 2.85975 -11.7026 -5.21048 3.11925 -11.6604 
-5.15309 2.77484 -11.7174 -5.20082 3.16048 -11.6542 -5.19094 3.2101 -11.6414 
-5.1967 3.17765 -11.6472 -4.98453 2.54185 -11.691 -4.86934 2.25797 -11.6172 
-4.79207 2.00665 -11.5357 -4.74938 1.42079 -11.3116 -4.87919 1.12346 -11.179 
-4.62166 1.04944 -11.0606 -4.89703 1.68747 -11.4742 -0.0211105 3.24352 -10.7268 
0.00899417 3.25555 -10.7702 0.0226002 3.26289 -10.8002 0.0431375 3.27237 -10.8566 
-1.00245 1.86126 -12.1805 -0.754317 2.26257 -12.3306 -0.635071 2.46569 -12.3479 
-0.606903 2.65292 -12.2272 -0.608514 2.78871 -12.0968 -0.761781 1.91859 -12.4213 
-0.427121 2.81736 -12.2061 -1.07409 1.58411 -12.1278 -0.228134 2.98132 -12.1389 
0.137314 3.31772 -11.11 0.201533 3.3228 -11.379 0.206528 3.32347 -11.3966 
0.206824 3.27456 -11.6735 0.208203 3.3214 -11.4073 -0.00424241 3.05987 -12.1012 
0.222161 3.20655 -11.8503 0.227197 3.11568 -12.0214 0.230124 3.25754 -11.7208 
-3.21735 0.79045 -10.4173 -3.06355 0.780667 -10.4119 -3.09292 0.634675 -10.2417 
-2.82694 0.575909 -10.1884 -2.3497 0.592062 -10.4401 -2.5522 0.500734 -10.1757 
-2.13912 0.744543 -10.7629 -3.99156 0.632454 -10.4397 -3.8192 0.499798 -10.1724 
-3.53637 0.582694 -10.1999 -3.32631 0.642694 -10.2579 -1.81112 0.738947 -11.0597 
-1.62711 0.880652 -11.3497 -4.29768 0.51331 -10.4321 -4.54275 0.615375 -10.66 
-4.77168 0.651133 -10.7754 -4.8557 0.755149 -10.8975 -4.80153 0.905327 -11.0109 
-1.39771 0.767735 -11.5425 -1.05807 1.33157 -12.1247 -0.939894 1.07246 -12.1636 
-1.12315 0.930566 -11.9335 -1.23367 0.806834 -11.7618 -5.30562 2.64732 -11.7051 
[...]
POINT_DATA 1094
SCALARS scalars float
LOOKUP_TABLE default
0 0 -0.00679995 0 1.38778e-17 -0.165398 -0.0126013 -0.240061 0 
0 -0.413646 -0.217615 -0.424517 -0.254808 -0.0259427 0 -0.580892 0 
-0.636697 -0.382946 -0.112294 -0.690346 -0.39408 -0.21403 -0.169685 2.60209e-18 1.73472e-18 
-3.46945e-18 -0.862156 -0.874978 -0.774855 -0.658737 3.46945e-18 -0.85485 -0.414057 -0.136247 
0 0 -0.992239 -1.01411 -0.758532 -0.57389 -0.21137 -7.80626e-18 -1.07475 
-1.14938 -0.922891 -0.275494 -0.501161 -1.38778e-17 -0.0466492 -1.25078 -1.18087 -1.095 
-1.22495 -0.721247 -0.911556 -0.756777 -0.376474 -1.38778e-17 -0.0304154 3.46945e-18 -1.33694 
-1.39618 -1.38337 -1.25438 -1.02305 -0.23512 -0.562588 0 -0.00765964 0 
-1.50371 -1.43822 -1.39039 -1.34878 -1.11574 -0.858991 -0.894254 -0.621253 -0.43418 
-0.0549772 -6.93889e-18 -3.46945e-18 -3.46945e-18 -1.65614 -1.48295 -1.48738 -1.22979 -1.05146 
-0.963099 -0.250873 6.93889e-18 0 -0.512356 -0.772186 8.67362e-19 -1.74879 -1.67977 
-1.60812 -1.5195 -1.36931 -1.21698 -1.02848 -0.671669 -0.350574 -0.398004 -0.356593 
-0.281561 -0.215129 3.46945e-18 6.93889e-18 6.93889e-18 0 0 -1.49686 -1.65102 
-1.84616 -1.43483 -1.22742 -0.936942 -0.738077 -0.158383 -0.438732 6.93889e-18 1.38778e-17 
-0.647948 -1.15561 -0.933888 -2.01932 -2.06935 -1.92099 -1.84859 -1.74782 -1.62763 
-1.60544 -1.41597 -0.511852 -0.174536 -0.210686 -0.198072 -0.270215 -0.0415404 -0.111067 
-3.46945e-18 -1.42972 -1.24646 -1.75021 -1.43892 -0.983068 -0.688169 -0.656131 6.93889e-18 
-0.286253 0 -0.598192 -0.812907 -1.36414 -1.40456 -1.18737 -0.990195 -2.18615 
-2.07175 -2.06758 -1.7397 -1.83634 -1.93477 -1.84928 -1.72181 -1.58428 -1.57871 
-1.4855 -0.445871 -0.0723896 3.46945e-18 1.04083e-17 6.93889e-18 -0.182247 -0.115132 0 
-6.93889e-18 -3.46945e-18 -6.93889e-18 3.46945e-18 0 -1.23697 -0.979437 -1.59693 -1.3493 
-1.15804 -1.17935 -0.797778 -0.592539 -0.397789 -1.38778e-17 -0.115185 -0.360709 0 
-0.562298 -0.759004 -1.56942 -1.67503 -1.38094 -1.22548 -1.02413 -0.654984 -0.787717 
-2.20579 -2.29464 -2.01356 -1.78348 -2.08032 -2.22872 -1.40258 -1.39024 -2.06029 
-2.03669 -1.87288 -1.89101 0 -3.46945e-18 1.38778e-17 1.38778e-17 -0.144213 6.93889e-18 
-1.05414 -0.827043 -0.752064 -1.08254 -0.898102 -0.979631 -0.345649 -0.573678 -0.0622557 
-6.93889e-18 0 -0.359294 -1.71247 -1.78438 -1.28785 -1.51254 -1.33144 -1.19957 
-1.94423 -1.10754 -0.849591 -0.34862 -0.449658 -0.536591 -2.02244 -2.27369 -2.49036 
-2.41185 -1.54869 -1.83967 -2.17485 -2.36199 -2.31881 -1.19811 -1.06503 -1.13594 
-1.35341 -2.23392 -2.18746 -2.34841 -2.11918 6.93889e-18 -0.0278999 0 -0.57099 
-0.717357 -1.03932 -0.799205 -0.74212 -0.667563 -0.343607 0 0 0 
-0.0405286 -1.70673 -1.32642 -1.12996 -1.04272 -1.47346 -0.905968 -1.91766 -0.637859 
-0.158655 -0.225662 -0.257775 -0.1932 -0.418954 -2.09351 -2.32302 -2.51051 -2.60875 
-2.45724 -2.54009 -1.73601 -1.47149 -1.34405 -1.99882 -2.42473 -2.41032 -2.45602 
-0.88196 -1.20314 -0.810211 -2.31031 -2.43077 -2.53653 -2.16234 -2.21908 -2.40255 
-2.12054 -6.93889e-18 0 -0.132211 -3.46945e-18 0 -3.46945e-18 -0.334295 -0.450126 
-0.514081 -0.544963 -0.398281 -0.673814 -0.396466 0 0 0 0 
-1.66892 -1.22837 -1.02837 -0.928246 -0.886927 -1.41643 -0.705253 -1.90394 -0.472106 
0 -5.20417e-18 -8.67362e-18 -0.0262197 5.20417e-18 -0.238412 -6.93889e-18 -6.93889e-18 0 
-2.21786 -2.36563 -2.41018 -2.55074 -2.67854 -2.53727 -2.57221 -1.50453 -1.76577 
-2.01592 -2.18672 -2.60855 -2.57643 -1.23035 -0.919595 -0.666547 -0.535343 -0.52673 
-2.40991 -2.01983 -1.8759 -2.11507 -2.22267 -6.93889e-18 -6.93889e-18 -0.164104 -0.159032 
-0.305256 -0.325826 -0.253623 -0.100142 -0.101814 -0.0850877 -0.138555 -0.144997 -1.67448 
-1.19 -1.05036 -0.834042 -1.17406 -1.38952 -1.58756 -0.48866 -0.558702 -1.76756 
-0.323844 0 0 -0.0891886 -1.04083e-17 -2.47153 -2.29061 -2.38641 -2.75013 
-2.65396 -2.56611 -2.38802 -2.76227 -1.51839 -1.62363 -1.77269 -2.11646 -2.55219 
-2.62902 -1.07658 -0.935822 -1.38234 -0.643448 -0.422627 -2.12773 -2.26259 -1.79565 
-1.5692 -1.63016 -2.02548 6.93889e-18 -1.04083e-17 3.46945e-18 -0.145967 0 -0.114715 
-0.0377466 6.93889e-18 -3.46945e-18 -6.93889e-18 1.38778e-17 6.93889e-18 -6.93889e-18 0 6.93889e-18 
6.93889e-18 6.93889e-18 1.38778e-17 -6.93889e-18 -1.08899 -0.931917 -0.673374 -0.969009 -1.17699 
-1.47329 -1.18304 -0.346908 -0.396371 -0.436493 -0.109962 -0.25087 -3.46945e-18 1.38778e-17 
6.93889e-18 -2.39611 -2.37196 -2.22082 -2.18083 -2.6048 -2.83232 -2.45405 -2.17448 
-2.31023 -2.51135 -1.5836 -1.80067 -2.08035 -2.2418 -2.44377 -2.4688 -0.787919 
-1.02777 -1.37639 -1.16951 -0.428666 -0.344189 -1.82993 -1.98976 -1.99419 -2.26872 
-1.5168 -1.46664 -1.38363 -1.28927 0 0 -0.129066 0 3.46945e-18 
-0.739697 -0.51297 -0.688701 -0.980586 -0.974001 -0.90715 -0.217479 -6.93889e-18 -2.0119 
-1.97598 -1.94182 -2.73615 -2.56966 -2.66004 -2.46376 -2.19432 -2.06686 -2.24287 
-2.49097 -2.2361 -2.05305 -1.56671 -1.73994 -1.97973 -2.16581 -2.01857 -0.601615 
-0.795886 -0.907236 -1.23239 -1.31111 -1.06623 -0.140209 -0.374326 -1.6469 -1.68311 
-1.67129 -2.06722 -1.90339 -1.55491 -1.40402 -1.19804 -1.28747 -1.13394 -1.09154 
0 0 -0.59173 -0.360832 -0.740011 -0.37982 -0.446141 -0.707437 -0.786143 
-0.734572 -0.740892 0 6.93889e-18 -1.85425 -1.7942 -1.68605 -1.88016 -1.64176 
-2.63104 -2.4914 -2.47834 -2.42848 -1.99175 -2.29667 -2.14863 -2.30047 -2.0903 
-1.99328 -1.71951 -1.66086 -1.54162 -1.76227 -2.08237 -1.95574 -1.89875 -0.633183 
-0.742803 -1.03857 -1.29043 6.93889e-18 6.93889e-18 -0.0970406 -0.401518 -1.35268 -1.37421 
-1.19634 -0.992204 -0.962014 -1.1387 -0.846302 -0.836634 -0.0837051 1.38778e-17 -0.517778 
-0.180099 -0.212001 -0.213367 -0.481013 -0.491635 -0.500555 -1.66741 -1.78047 -1.57929 
-1.44548 -1.39505 -1.74773 -1.36163 -1.49525 -2.2352 -2.15289 -2.26043 -1.98906 
-1.77507 -1.99828 -2.08445 -1.83543 -1.95199 -1.55614 -1.37955 -1.48626 -1.34728 
-1.48785 -1.80986 -1.53211 -1.8624 -1.80285 -0.420402 -0.749062 -1.00672 -1.22475 
1.38778e-17 0 -0.0163802 -0.208911 -1.13459 -1.05484 -1.13394 -0.766032 -0.724657 
-0.722715 -0.610198 0 -6.93889e-18 6.93889e-18 6.93889e-18 -0.210125 1.38778e-17 0 
-6.93889e-18 2.77556e-17 -1.38778e-17 -0.191985 -0.2116 -0.339686 -0.156775 -1.53395 -1.48772 
-1.35594 -1.19274 -1.05991 -1.66169 -1.24326 -1.58186 -1.46156 -1.26922 -1.74024 
-1.95394 -1.50245 -1.58415 -1.74309 -1.91002 -1.83429 -1.88147 -1.75965 -1.62112 
-1.31623 -1.35193 -1.1735 -1.28545 -1.08251 -1.10808 -1.5025 -1.55933 -1.84786 
-1.33832 -1.65097 -1.60494 -0.194239 -0.189857 -0.501045 -0.728213 -0.876052 -0.973859 
-1.15208 0 0 6.93889e-18 -0.945248 -0.793404 -0.926407 -0.448438 -0.408013 
-0.595946 -6.93889e-18 -1.38778e-17 -3.46945e-18 3.46945e-18 -3.46945e-18 1.38778e-17 -1.38778e-17 -0.162657 
-0.138417 -0.013289 6.93889e-18 1.38778e-17 -1.324 -1.33048 -1.2877 -1.09301 -0.832807 
-1.05916 -0.822067 -0.67988 -0.939387 -1.36514 -1.08306 -1.6431 -1.40104 -1.40057 
-1.52861 -1.68338 -1.53569 -1.58692 -1.44291 -1.37871 -1.07868 -1.09706 -1.02054 
-0.766078 -0.860605 -1.22067 -1.34394 -1.60284 -1.72372 -1.54403 -1.43861 -1.51801 
6.93889e-18 2.08167e-17 -0.349058 -0.548046 -0.585068 -0.628573 -0.929651 -0.763819 -0.62813 
-0.680944 -0.170456 -0.164559 -0.124467 -0.374135 -6.93889e-18 0 -1.73472e-18 0 
0 -1.15468 -1.06135 -1.15821 -1.04509 -0.811748 -0.570302 -0.457743 -0.608914 
-0.600501 -0.330387 -0.762289 -1.23619 -0.966018 -1.36125 -1.11758 -1.11386 -1.2958 
-1.46518 -1.36769 -1.40307 -1.1936 -1.31266 -1.4174 -1.16722 -1.19461 -1.09623 
-0.847103 -0.738799 -0.878115 -0.598015 -0.490162 -0.564972 -0.383589 -0.905763 -1.00679 
-1.17671 -1.5412 -1.11716 -1.12156 -1.34682 -1.59382 -1.38982 -1.22657 -1.35128 
2.08167e-17 -0.308549 -0.245304 -0.647139 -0.339184 -0.565983 -0.350109 0 1.38778e-17 
-6.93889e-18 -6.93889e-18 -0.165221 -0.0232844 6.93889e-18 -0.18036 -0.834746 -0.867381 -0.868686 
-0.495569 -0.292029 -0.0969893 -0.230018 -0.410441 -0.0380112 -1.56125e-17 0 -0.568888 
-1.16729 -1.14905 -0.790778 -0.849983 -0.801094 -0.892169 -0.867519 -1.03069 -0.966341 
-0.85184 -0.399733 -0.642622 -0.353966 -0.346028 -0.294284 -0.144778 -0.073311 -0.727081 
-0.910106 -1.50418 -1.02373 -0.892975 -1.27941 -1.47555 -1.1593 -1.03068 -1.03149 
0 -0.0349158 -0.0433463 -0.0550996 -0.332575 -0.0896712 -0.0500136 -0.0794331 0 
3.46945e-18 -0.65439 -0.609513 -0.712179 -0.871161 -0.70827 -0.585027 -0.5006 -0.462686 
-0.284568 -0.154781 -0.0131529 -1.38778e-17 0 1.38778e-17 -0.20792 0 0 
-0.0269102 -0.3013 -0.138476 -1.73472e-18 -0.432574 -0.26637 -0.68778 -0.523021 -0.601157 
-0.490563 -0.539884 -0.523171 -0.585652 -0.621821 -0.650171 -0.796155 -0.847333 -0.676106 
-0.138128 -0.155098 -0.411129 -0.177318 0 0 0 -6.93889e-18 0 
0 -0.596398 -0.766303 -0.716446 -0.925185 -1.04903 -0.920808 -0.797759 -0.764423 
-0.718244 0 0 0 0 6.93889e-18 0 1.38778e-17 -0.300827 
-0.0141786 1.73472e-18 -6.93889e-18 6.93889e-18 0 -6.93889e-18 -0.502988 -0.277553 -0.19026 
-0.289276 -0.0421906 0 0 0 1.73472e-18 0 0 0 
-0.090672 -1.38778e-17 -0.366354 -0.211854 -0.159622 -6.93889e-18 -6.93889e-18 -0.427727 -0.265596 
-0.432419 -0.353321 -0.23103 -0.329153 -0.220374 -0.313822 -0.426871 -0.553132 -0.446436 
-0.304231 0 6.93889e-18 0 0 3.46945e-18 -0.260955 -0.550645 -0.600635 
-0.407725 -0.738181 -0.888041 -0.683956 -0.490825 -0.575035 0 0 -1.38778e-17 
0 -0.280209 -0.0146885 -0.013492 5.20417e-18 -1.04083e-17 0 -0.00887907 0 
3.46945e-18 0 -6.93889e-18 1.38778e-17 -1.38778e-17 6.93889e-18 6.93889e-18 -0.0612969 -3.46945e-18 
-0.11318 6.93889e-18 -6.93889e-18 -0.0554511 0 3.46945e-18 0 -6.93889e-18 -0.176147 
-0.242212 -0.26879 -0.131625 1.38778e-17 6.93889e-18 3.46945e-18 -0.0357634 -0.290438 -0.444061 
-0.419463 -0.553524 -0.43018 -0.440982 -0.363527 -0.266145 -0.192398 -0.12031 0 
0 -1.73472e-18 0 -4.33681e-19 -1.73472e-18 0 1.73472e-18 -6.93889e-18 0 
0 6.93889e-18 6.93889e-18 -6.93889e-18 3.46945e-18 0 1.38778e-17 -0.029192 -0.0245933 
3.46945e-18 0 -8.67362e-18 -1.73472e-18 0 -1.38778e-17 0 -3.46945e-18 0 
-0.0260124 -0.22357 -0.266843 -0.309911 -0.117498 -0.176645 -0.159249 -0.0321029 -1.38778e-17 
1.38778e-17 0 0 0 0 0 0 0 -0.0544847 
-0.0233471 0 0 0 0 -6.93889e-18 6.93889e-18 -3.46945e-18 0 
0 3.46945e-18 0 -3.46945e-18 -3.46945e-18 
