# vtk DataFile Version 4.2
3D Slicer output. SPACE=LPS
ASCII
DATASET POLYDATA
POINTS 4775 float
-98.429 -0.838765 9.93323 -98.2715 -0.838765 10.2164 -98.2715 -0.338765 10.1109 
-98.6189 -0.838765 9.60747 -98.5912 -1.07549 9.66154 -98.3726 -1.15909 9.93323 
-98.6511 -0.338765 9.43323 -98.7198 -0.624185 9.38315 -98.0832 -0.338765 10.4332 
-98.0344 -0.838765 10.4332 -98.3198 -1.18596 10.0198 -97.8586 -1.33877 10.4332 
-97.9663 0.161235 10.4332 -98.2715 -0.142461 9.93323 -98.7715 -0.600499 9.2758 
-98.7715 -0.338765 9.19923 -98.586 0.161235 9.43323 -97.7715 -0.838765 10.6641 
-97.7715 -0.338765 10.8366 -98.1409 -1.33877 10.1406 -97.6377 -1.33877 10.9332 
-97.7715 -1.83877 10.5706 -98.2715 0.161235 9.83534 -97.7715 0.334257 10.9332 
-97.9726 0.661235 10.4332 -98.8426 -0.583088 9.06925 -98.9027 -0.562492 8.93323 
-98.8912 -0.338765 8.93323 -98.8596 0.161235 8.93323 -98.52 0.661235 9.43323 
-97.6468 -0.838765 10.9332 -97.4637 -0.338765 11.4332 -97.4445 0.161235 11.4332 
-97.9703 -1.66423 10.3481 -97.5629 -1.83877 10.9332 -97.2715 -1.33877 11.6065 
-97.4882 -0.838765 11.4332 -97.9092 -1.83877 10.4071 -97.8824 -1.87838 10.4293 
-97.8393 -1.92736 10.4577 -97.7837 -1.98289 10.531 -97.7715 -1.99244 10.5408 
-97.5261 -2.19998 10.8326 -98.2715 0.786288 9.93323 -97.8052 0.661235 10.9332 
-97.5626 0.661235 11.4332 -97.9734 1.16123 10.4332 -98.9103 -0.533878 8.73812 
-98.9888 -0.338765 8.70185 -99.0454 0.161235 8.43323 -99.0715 -0.0683272 8.43323 
-98.7715 0.585258 8.93323 -98.8915 0.661235 8.43323 -98.7715 0.661235 8.86061 
-98.4805 1.16123 9.43323 -98.569 1.16123 8.93323 -97.2715 -0.838765 11.7071 
-97.2715 -0.338765 11.7246 -97.2715 0.161235 11.7585 -97.4507 -2.26679 10.9332 
-97.2715 -2.33876 11.1899 -97.2715 -1.79016 11.4332 -96.9519 -1.33877 11.9332 
-96.7715 -1.69228 11.9332 -97.0789 -0.838765 11.9332 -98.2881 1.16123 9.93323 
-97.7895 1.16123 10.9332 -97.5824 1.16123 11.4332 -97.2945 0.661235 11.9332 
-97.2715 0.535771 11.9332 -97.2715 0.741213 11.9332 -97.8833 1.5187 10.4332 
-97.8271 1.55416 10.5663 -97.7715 1.25906 10.9332 -99.1506 0.161235 8.23338 
-99.1335 0.0146731 8.23843 -99.1278 0.661235 7.93323 -99.1931 0.495034 7.93323 
-99.1552 0.226531 8.19055 -98.7715 1.11793 8.43323 -98.7715 1.16123 8.38876 
-98.9817 1.16123 7.93323 -98.4455 1.59787 9.43323 -98.5025 1.66123 8.93323 
-98.4191 1.59131 9.50316 -98.6253 1.66123 8.43323 -97.1052 -0.338765 11.9332 
-96.8836 0.161235 12.4332 -97.3853 -2.33876 11.0078 -97.2715 -2.46442 11.1052 
-97.0738 -2.33876 11.4332 -96.7715 -1.33877 12.1231 -96.7715 -2.33876 11.8042 
-96.4047 -1.83877 12.4332 -96.2715 -2.12622 12.4332 -96.7715 -0.838765 12.3222 
-96.7715 -0.520173 12.4332 -97.9778 1.51321 10.2852 -98.2737 1.59628 9.84017 
-97.2715 1.16123 11.9178 -97.4742 1.66123 11.4332 -97.2715 1.66123 11.8553 
-96.9145 0.661235 12.4332 -96.9537 1.16123 12.4332 -97.7561 1.66123 10.6977 
-97.6748 1.66123 10.9332 -99.2018 0.661235 7.78676 -99.2715 1.16123 7.57185 
-99.2715 0.867931 7.61701 -98.7715 1.66123 8.14339 -98.9364 1.66123 7.93323 
-99.2715 1.43608 7.43323 -98.4865 1.66123 9.06206 -98.4993 1.68538 8.93323 
-98.507 1.68756 8.90691 -98.6207 1.72472 8.43323 -96.8104 -0.338765 12.4332 
-96.5202 0.161235 12.9332 -96.3979 -0.338765 12.9332 -96.7715 0.661235 12.6425 
-96.5714 0.661235 12.9332 -97.1725 -2.52882 11.1836 -96.887 -2.70992 11.4332 
-96.5398 -1.33877 12.4332 -96.8139 -2.75769 11.4934 -96.2715 -2.83876 12.0251 
-96.2715 -2.33876 12.2996 -95.8951 -1.83877 12.9332 -96.2715 -1.33877 12.8024 
-95.7715 -2.28802 12.9332 -96.2792 -0.838765 12.9332 -96.2715 -0.884586 12.9332 
-97.0654 1.66123 12.4332 -97.55 2.16123 11.1793 -97.598 1.99459 11.0999 
-97.4365 2.16123 11.4332 -97.2715 2.16123 11.8888 -97.1474 2.16123 12.4332 
-96.7715 1.16123 12.6817 -97.6689 1.85669 10.9332 -99.3039 0.875161 7.49254 
-99.3317 0.88743 7.43323 -99.336 1.16123 7.43323 -98.7899 1.76948 8.0979 
-98.7358 1.7591 8.20012 -98.9094 1.82961 7.93323 -99.2715 1.66123 7.21738 
-98.958 1.85731 7.73716 -99.4819 1.16123 6.93323 -96.2715 0.161235 13.1489 
-95.877 -0.338765 13.4332 -95.7907 -0.838765 13.4332 -96.042 0.161235 13.4332 
-96.6281 1.16123 12.9332 -96.2715 0.661235 13.3208 -96.2715 0.89656 13.4332 
-96.6928 -2.83876 11.5723 -96.6117 -2.89184 11.6224 -96.3478 -3.04431 11.7818 
-96.2715 -3.08239 11.8554 -96.1438 -3.12516 11.9725 -95.9906 -2.83876 12.4332 
-95.7715 -2.83876 12.7395 -95.7715 -2.33876 12.9212 -95.5027 -1.83877 13.4332 
-95.7715 -1.33877 13.4229 -95.7715 -1.20487 13.4332 -95.2715 -2.33876 13.4927 
-96.7715 1.66123 12.9047 -96.8732 2.16123 12.9332 -96.7715 1.71816 12.9332 
-97.4806 2.31238 11.2821 -97.3943 2.39574 11.4332 -97.3218 2.49611 11.5837 
-97.2485 2.66123 11.6812 -97.1487 2.66123 11.9332 -97.0633 2.66123 12.4332 
-99.36 0.934174 7.20617 -99.4433 0.953836 6.93323 -99.3408 1.66123 6.93323 
-99.2715 1.8185 6.93323 -99.1154 1.94004 7.33775 -99.1613 1.98793 7.03172 
-99.4214 1.16123 6.67942 -99.3969 1.05053 6.7311 -99.4051 0.978707 6.80543 
-99.3527 1.38969 6.66169 -95.7715 0.161235 13.76 -95.4066 -0.338765 13.9332 
-95.2715 -1.33877 13.7495 -95.2715 -0.830912 13.9332 -96.3509 1.16123 13.4332 
-96.5014 1.66123 13.4332 -95.7818 0.661235 13.9332 -95.7715 0.631523 13.9332 
-96.0069 1.16123 13.9332 -96.0302 -3.1814 12.0906 -95.7715 -3.18378 12.4332 
-95.5972 -2.83876 12.9332 -95.2715 -2.43405 13.4332 -95.2715 -1.83877 13.6098 
-94.7715 -2.14198 13.9332 -96.8472 2.66123 12.9332 -96.5799 2.16123 13.4332 
-96.5855 2.66123 13.4332 -97.1312 2.96259 11.9332 -97.1047 3.02782 12.0667 
-97.0576 3.16123 12.2457 -97.0203 3.16123 12.4332 -96.9531 3.16123 12.9332 
-99.3291 1.53359 6.43323 -99.3176 1.66123 6.43323 -99.1762 2.01219 6.93323 
-99.2715 1.96265 6.43323 -95.5894 0.161235 13.9332 -94.8804 -0.338765 14.4332 
-94.7715 -0.620149 14.4332 -95.2715 0.305188 14.4332 -95.0429 -1.33877 13.9332 
-96.2715 1.66123 13.7516 -95.7715 1.16123 14.2097 -95.4081 0.661235 14.4332 
-96.1008 1.66123 13.9332 -95.9241 -3.26916 12.1578 -95.7387 -3.40813 12.262 
-95.5209 -3.51218 12.444 -95.2836 -3.33876 12.9332 -95.2715 -3.35701 12.9332 
-95.2715 -2.83876 13.221 -95.0507 -2.83876 13.4332 -94.7715 -1.83877 14.0219 
-94.7715 -2.83876 13.6636 -94.2715 -2.69141 13.9332 -94.2715 -2.33876 14.1376 
-96.7715 2.97693 13.4332 -96.2715 1.97871 13.9332 -96.5118 2.66123 13.9332 
-96.8868 3.16123 13.9332 -97.0394 3.2921 12.4332 -97.0393 3.34175 12.6137 
-97.0325 3.49198 12.9332 -96.9131 3.16123 13.4332 -97.0875 3.66123 13.142 
-97.1076 3.66123 13.4332 -99.3065 1.54072 6.4062 -99.2847 1.66123 6.27873 
-99.276 1.72677 6.21544 -99.2889 1.91824 6.21155 -99.2052 2.04075 6.62987 
-99.2715 2.0721 6.37061 -94.7771 0.161235 14.9332 -94.4597 -0.338765 14.9332 
-94.7715 -1.33877 14.1984 -94.5421 -1.33877 14.4332 -94.2715 -1.33877 14.6629 
-94.2715 -0.723247 14.9332 -95.0275 0.661235 14.9332 -95.838 1.66123 14.4332 
-95.5758 1.16123 14.4332 -95.3311 1.16123 14.9332 -96.1648 2.16123 14.4332 
-96.2715 2.16123 14.1165 -95.2715 -3.63705 12.6551 -94.856 -3.33876 13.4332 
-94.9587 -3.72228 12.9332 -94.7715 -3.44463 13.4332 -94.2715 -1.80341 14.4332 
-94.7715 -3.33876 13.4986 -94.2715 -3.33876 13.7016 -93.7715 -3.33459 13.9332 
-93.7715 -2.83876 14.1261 -93.7957 -2.33876 14.4332 -93.7715 -2.36296 14.4332 
-96.4866 2.66123 14.4332 -96.2715 2.3346 14.4332 -96.8578 3.16123 14.4332 
-97.156 3.66123 13.9332 -97.1706 3.85329 13.3495 -97.1893 3.84426 13.4332 
-97.2715 3.96002 13.6792 -97.2715 3.88939 13.9332 -99.278 1.90789 6.03595 
-99.279 2.0565 6.27304 -99.3119 2.05456 6.05542 -94.3625 0.161235 15.4332 
-94.7715 0.661235 15.259 -94.2715 0.0123101 15.4332 -94.2715 -0.338765 15.1716 
-93.7715 -1.83877 14.6819 -93.7715 -1.33877 14.9103 -93.7715 -0.838765 15.2789 
-95.2715 1.16123 15.1016 -96.1076 2.16123 14.9332 -95.7715 1.76265 14.9332 
-94.8433 -3.7682 13.0228 -94.7715 -3.83876 13.0191 -94.2715 -3.68463 13.4332 
-94.0714 -3.83876 13.4332 -93.7715 -3.83876 13.6605 -93.7715 -3.33876 13.9317 
-93.2715 -3.33876 14.2371 -93.3226 -2.83876 14.4332 -93.2715 -2.93324 14.4332 
-93.2715 -2.33876 14.712 -96.4371 2.66123 14.9332 -96.2715 2.41817 14.9332 
-96.8394 3.16123 14.9332 -97.2715 3.78118 14.4332 -97.3395 4.03547 13.9332 
-97.3587 4.04322 14.0885 -94.2715 0.161235 15.5183 -94.5844 0.661235 15.4332 
-94.7715 0.802932 15.4332 -93.7715 0.252914 15.9332 -93.7715 -0.338765 15.5693 
-93.7715 -0.576985 15.4332 -93.2715 -1.80879 14.9332 -93.2715 -1.33877 15.2222 
-93.4522 -0.838765 15.4332 -95.5505 1.66123 15.4332 -95.2715 1.28522 15.4332 
-96.0056 2.16123 15.4332 -95.7715 1.91565 15.4332 -94.817 -3.83876 12.9745 
-94.7715 -3.89402 12.9752 -94.2787 -4.02871 13.1702 -94.2715 -4.03319 13.1764 
-94.6551 -3.88567 13.0497 -94.1656 -4.07413 13.2063 -93.8484 -4.17758 13.4332 
-93.7715 -4.19649 13.482 -93.2715 -4.33876 13.6777 -93.2715 -3.78573 13.9332 
-93.0476 -3.33876 14.4332 -92.7715 -3.83876 14.2412 -92.7715 -2.83876 14.7844 
-92.8062 -2.33876 14.9332 -92.7715 -2.38197 14.9332 -96.4078 2.66123 15.4332 
-97.2715 3.71511 14.9332 -97.2715 3.66123 15.2403 -96.808 3.16123 15.4332 
-97.5367 4.16123 14.2436 -97.6215 4.16123 14.4332 -94.2715 0.661235 15.8954 
-94.7715 0.916251 15.9332 -94.9444 1.16123 15.9332 -93.7715 0.467456 16.4332 
-93.2715 0.161235 16.2229 -94.0616 0.661235 16.4332 -94.2531 0.661235 15.9332 
-93.2715 -0.0738473 15.9332 -93.2715 -0.338765 15.8056 -92.7715 -1.83877 15.267 
-92.7715 -1.32552 15.4332 -93.0216 -0.338765 15.9332 -92.7715 -0.838765 15.6375 
-95.3271 1.66123 15.9332 -95.7909 2.16123 15.9332 -96.3883 2.66123 15.9332 
-93.5026 -4.31819 13.5647 -93.476 -4.33876 13.567 -93.2715 -4.40176 13.6226 
-92.7715 -4.21125 13.9332 -92.7715 -3.64593 14.4332 -92.7715 -3.33876 14.619 
-92.5685 -3.83876 14.4332 -92.2715 -4.33876 14.1369 -92.2976 -2.83876 14.9332 
-92.2715 -3.33876 14.7697 -92.2715 -2.33876 15.1669 -96.8463 3.16123 15.9332 
-97.7715 4.16123 15.153 -97.8239 4.16123 15.4332 -97.3157 3.66123 15.4332 
-97.3713 3.66123 15.9332 -97.6973 4.28127 14.4332 -97.7715 4.34051 14.6101 
-94.2715 0.803933 16.4332 -94.7802 1.16123 16.4332 -95.2715 1.76414 16.4332 
[...]
POINT_DATA 4775
SCALARS scalars float
LOOKUP_TABLE default
-0.539875 -0.688048 -0.973927 2.77556e-17 0 2.77556e-17 -0.577469 -2.77556e-17 -1.18559 
-0.806324 5.55112e-17 -0.427267 -1.4467 -1.00691 2.77556e-17 -0.476905 -0.911216 -0.968755 
-1.46616 2.77556e-17 -0.753765 -0.162391 -1.1796 -1.37248 -0.949359 0 -2.77556e-17 
-0.404147 -0.623551 -0.980688 -1.14676 -1.8658 -1.74399 0 -0.371061 -1.19432 
-1.46566 1.38778e-17 0 0 0 0 0 -0.804047 -1.05405 
-1.27987 -0.4549 2.77556e-17 0 -0.398274 -2.77556e-17 -0.899471 -0.618953 -0.905357 
-0.483223 -0.527993 -1.65391 -2.06576 -1.91904 -1.38778e-17 -0.152482 -0.731087 -1.42359 
-1.16343 -1.8118 -0.431308 -0.587533 -0.860256 -1.59668 -1.69954 -1.54026 0 
2.77556e-17 -0.499939 -2.77556e-17 -2.77556e-17 -0.352188 2.77556e-17 2.77556e-17 -0.622472 -0.581038 
-0.638203 3.46945e-17 -0.0243386 -2.08167e-17 -0.0636939 -2.21332 -2.3744 6.93889e-18 -1.38778e-17 
-0.30857 -1.55611 -0.553539 -1.35656 -1.13356 -2.07647 -2.39913 -2.77556e-17 0 
-1.22002 -0.503489 -0.842592 -1.99638 -1.64452 0 -0.161535 2.77556e-17 -0.470605 
-2.77556e-17 -0.10658 -0.195837 -0.55305 3.46945e-18 -3.46945e-18 -3.46945e-18 -6.93889e-18 -2.5416 
-2.78473 -2.87906 -2.17173 -2.42153 0 1.38778e-17 -1.75707 -4.16334e-17 -0.348827 
-0.888438 -1.68242 -1.98801 -1.31061 -2.47723 -2.4396 -1.31182 2.77556e-17 -5.55112e-17 
-0.259829 -0.596551 -0.965666 -1.86104 -1.38778e-17 0 2.77556e-17 -0.425992 0 
-1.38778e-17 0 -0.382641 -1.38778e-17 -0.362958 -2.99959 -3.21928 -2.80188 -3.25722 
-2.06826 -2.76574 -2.6606 -1.38778e-17 1.38778e-17 2.77556e-17 0 0 -0.566507 
-0.739764 -1.2608 -1.97464 -2.36829 -2.48848 -1.59408 -1.64766 -1.23778 -1.61855 
0 0 0 -2.77556e-17 -0.298987 -0.541514 5.55112e-17 0 -0.41845 
-0.263789 0 2.77556e-17 2.77556e-17 0 -2.77556e-17 -2.77556e-17 -3.55497 -3.5314 
-2.58976 -3.12001 -2.43306 -1.99331 -3.27837 -3.30455 -2.81405 2.77556e-17 -0.319146 
-0.854238 -1.48239 -2.08618 -2.02184 -0.829607 -1.57109 -1.19717 0 -2.77556e-17 
0 -0.118304 -0.409141 1.38778e-17 -0.12069 0 -0.131577 -3.72186 -3.83254 
-3.59625 -4.01833 -2.7029 -2.23606 -3.05553 -3.69915 -2.40002 0 -2.77556e-17 
-2.77556e-17 -0.455123 -0.440625 -1.02784 -1.15015 -2.3305 -1.28275 -1.57661 -1.98126 
-0.882709 -2.08947 -1.48484 -0.940731 0 0 -2.77556e-17 -0.680823 -2.77556e-17 
-0.292159 -1.38778e-17 6.93889e-18 -6.93889e-18 -0.141435 0 0 -4.51352 -4.10257 
-2.85339 -2.98171 -3.10742 -3.77681 -4.14277 -2.77814 -3.26207 -3.63864 -2.25919 
-2.04829 2.77556e-17 -0.731275 -1.38778e-17 -0.644301 -2.59048 -0.768673 -0.89453 -1.03265 
-1.56287 -2.14204 -2.1216 -1.74393 -2.08285 -1.20527 -0.474272 0 -2.77556e-17 
0 -0.303599 -6.93889e-18 6.93889e-18 -6.93889e-18 -4.78377 -4.44496 -4.65881 -4.22674 
-2.70089 -3.24953 -3.86103 -3.75395 -2.53614 -2.98962 2.77556e-17 -0.15225 -0.478148 
-0.372831 -0.469786 -1.02821 -1.17918 -1.71305 -1.62928 -2.28548 -2.02169 -2.27405 
-1.47306 -0.580379 -2.77556e-17 0 -4.82999 -4.63872 -4.43749 -5.13111 -4.4382 
-4.16427 -2.85893 -3.4073 -3.94309 -3.42816 -3.83387 -2.84493 -3.13663 1.38778e-17 
0 2.77556e-17 0 0 0 0 -2.77556e-17 -0.110327 -0.6533 
-1.27065 -0.740378 -1.87746 -2.3916 -2.35305 -2.29838 -0.884858 -1.09189 -1.76194 
-1.38778e-17 -0.159695 -5.05369 -4.60967 -4.35183 -5.56533 -5.19908 -5.44937 -5.08357 
-4.85621 -4.56228 -2.98761 -3.52175 -4.62458 -4.04905 -3.81184 -3.23038 -2.5828 
-6.93889e-18 0 0 -0.297012 -1.00015 -1.35901 -0.829705 -0.251897 -1.94334 
-1.4237 -2.495 -2.0309 -0.480505 -0.644449 -1.18291 -1.47419 1.38778e-17 0 
-5.23222 -4.70336 -4.0453 -5.99183 -5.80277 -5.89293 -5.30125 -5.12631 -5.35099 
-4.72574 -3.10309 -3.62324 -4.45045 -4.17993 -3.51085 -2.85978 -2.47924 0 
2.77556e-17 0 -1.38778e-17 -0.650243 -0.896029 -1.38778e-17 -0.309649 -1.66889 -2.03789 
-0.88695 -1.42908 -2.70075 -2.28445 -2.77556e-17 -0.264754 1.38778e-17 -1.01568 -0.66248 
-1.79672 -1.98942 -5.06533 -4.33953 -3.7719 -5.96721 -6.12379 -5.65715 -5.42957 
-5.54116 -4.86907 -5.58631 -5.37765 -3.12652 -3.72904 -4.31444 -3.15755 -2.8412 
-2.62053 -0.56315 0 2.77556e-17 -2.77556e-17 -0.37372 0 -2.08681 -1.47872 
-2.37017 -0.937425 -2.64582 4.16334e-17 -6.93889e-18 -1.37738 -1.09511 -0.438421 6.93889e-18 
-2.16822 -1.85035 -2.34585 -5.19795 -4.65146 -4.04657 -6.65133 -6.33404 -6.23341 
-5.79843 -6.11144 -5.92392 -5.61346 -5.2703 -4.92406 -4.68189 -5.38595 -3.43833 
-3.77499 -4.38399 -3.51004 -3.16922 -0.401583 2.77556e-17 -2.19779 -1.5508 -1.01013 
-2.65605 -1.74074 -1.60202 -1.46104 -0.930768 -0.92358 -0.88755 -0.366963 -2.08167e-17 
-2.32231 -2.62614 -5.05911 -3.89309 -4.42705 -6.53434 -6.66327 -6.90768 -6.4971 
-6.26396 -6.05235 -6.32355 -5.7818 -5.55134 -5.06012 -5.53677 -3.8212 -3.2755 
-4.39589 -4.91342 -5.05886 -3.13809 -3.42943 -1.01873 -0.442222 -0.979225 -2.77556e-17 
-2.77556e-17 2.77556e-17 -2.10563 -1.5487 -2.65217 -1.8009 -1.8126 -1.42922 -1.51348 
-0.939872 -0.423622 0 -1.38778e-17 -2.72223 -2.1787 -5.17176 -4.44842 -4.69318 
-4.34473 -3.96663 -6.89952 -6.81239 -7.33949 -7.13933 -6.68333 -6.30041 -6.02898 
-6.22648 -6.61321 -5.98507 -5.87648 -5.42357 -6.01812 -5.06075 -5.78959 -3.97879 
-3.22312 -4.46014 -5.28684 -4.7329 -3.53564 -0.988496 -0.416115 0 -2.77556e-17 
-2.11021 -1.83094 -1.55636 -2.97831 -2.6601 -2.0909 -1.85826 -2.01808 -1.62921 
-1.92947 -0.931116 -1.02473 -0.599571 -6.93889e-18 0 -0.10959 -2.62342 -3.3232 
-3.4945 -5.34561 -4.98338 -4.80856 -4.29129 -6.94314 -7.1033 -7.57506 -7.74872 
-7.35256 -6.9415 -6.52513 -6.50197 -6.03519 -6.48565 -6.86326 -6.99869 -5.74651 
-6.34361 -5.98329 -3.84996 -3.24636 -4.56901 -5.34655 -5.13583 -4.28683 -4.07377 
-1.73753 -0.93328 -0.370727 -2.77556e-17 -2.08807 -3.25668 -2.81595 -2.65864 -2.58889 
-2.6389 -2.65241 -2.74512 -2.86793 -2.22193 -1.80034 -1.11291 -0.857166 -0.373486 
0 1.38778e-17 -3.23298 -3.58409 -5.55886 -5.04642 -4.5354 -7.43475 -7.95604 
-8.03705 -7.96249 -7.56777 -7.16343 -7.13962 -6.53299 -6.08148 -6.64938 -6.73583 
-7.18789 -7.46516 -5.58094 -6.10619 -6.20152 -4.50423 -3.81773 -5.59363 -5.26235 
-4.91449 -4.97874 -3.92662 -4.70916 -4.35481 -2.01247 -1.45389 -0.884534 -0.332765 
-2.77556e-17 -2.77556e-17 -2.52787 -3.75748 -3.16254 -2.90882 -3.20647 -2.92907 -3.08602 
-3.02167 -3.41572 -2.39028 -2.03926 -1.56402 -1.11659 -0.661217 -0.0474065 0 
-3.67586 -5.50091 -4.9798 -7.84302 -8.53527 -8.39068 -8.12922 -7.61347 -8.08381 
-7.14263 -7.10228 -6.65543 -5.54738 -6.07452 -6.62551 -6.56063 -6.59582 -7.01234 
-7.49068 -7.61703 -6.51299 -6.05456 -6.51894 -4.43759 -5.6157 -5.12668 -5.01516 
-5.56559 -4.46554 -5.03494 -1.94323 -1.36919 -0.813375 -0.267317 0 0 
-2.43641 -2.08221 -4.51239 -3.73882 -3.10516 -3.78095 -3.79175 -3.22884 -3.85199 
-3.9411 -2.5676 -3.25647 -3.70276 -3.5321 -4.08854 -2.3023 -1.84785 -1.4938 
-1.40451 -0.995546 -0.59455 -0.253811 0 0 0 0 -0.0545455 
-4.38759 -4.54495 -8.19712 -8.42078 -8.98317 -8.56096 -8.57203 -8.13357 -7.59949 
-8.12954 -7.10044 -6.56812 -6.05535 -6.85395 -6.9142 -7.40348 -7.82173 -6.49834 
-6.27026 -6.91601 -6.03958 -5.08896 -5.60624 -5.42566 -5.28101 -5.14218 -2.04457 
-1.28756 -0.802381 -0.187559 0 0 -1.38778e-17 -3.08042 -2.36797 -5.03558 
-4.45035 -4.21174 -3.84386 -3.53368 -4.43033 -4.47974 -4.5398 -4.24786 -2.85533 
-2.58956 -3.52393 -3.8245 -3.69662 -4.27689 -4.56685 -4.42058 -2.15677 -1.51689 
-1.37879 -1.19794 1.38778e-17 6.93889e-18 -0.222216 -0.994713 -0.601261 -6.93889e-18 -4.6555 
-5.01909 -8.55786 -8.5834 -8.10388 -9.20077 -9.00697 -8.79213 -8.5862 -7.62832 
-8.15417 -7.10596 -6.58815 -6.56087 -6.17365 -7.16478 -7.38922 -7.84268 -6.48712 
-6.92389 -6.15066 -5.55657 -5.97853 -5.70616 -5.73577 -5.82749 -5.34548 -2.26812 
-1.72061 -1.19785 -0.767767 0 0 -3.40864 -3.0452 -5.05427 -4.80696 
-4.4933 -3.88878 -5.03793 -4.85807 -5.07445 -5.18927 -4.65849 -3.32269 -2.80186 
-3.78653 -4.04969 -4.46268 -4.67717 -4.8344 -5.07558 -2.7622 -2.51649 -2.12535 
-1.75286 -1.73077 0 -0.20337 1.38778e-17 -0.975428 -1.34527 -0.964439 -0.582506 
-8.81701 -8.74685 -9.08677 -9.46527 -9.07396 -8.65321 -7.65112 -8.18699 -7.40058 
-6.67254 -6.26933 -7.20931 -7.36219 -7.9206 -7.94485 -6.10617 -6.42993 -6.93984 
-5.52342 -5.96365 -6.3395 -6.42067 -6.08412 -5.70197 -5.44716 -2.71275 -2.16394 
-1.60668 -1.0846 -0.837901 -0.545289 2.77556e-17 -3.15614 -5.09466 -4.62148 -3.92206 
-5.6842 -5.65593 -5.686 -5.30876 -5.76454 -5.82964 -3.6456 -3.26021 -4.06128 
-4.93654 -4.51576 -5.16477 -5.37221 -5.46307 -2.87042 -2.51407 -2.10971 -2.48374 
-1.69928 -1.38778e-17 -0.204691 0 -1.33724 -0.818983 -9.12864 -9.15039 -8.64731 
-9.09726 -9.64306 -9.48651 -8.90483 -8.68761 -7.69992 -8.20451 -6.97808 -6.74621 
-7.86808 -7.29472 -7.36704 -7.62522 -8.62906 -7.88478 -6.42017 -6.91207 -5.59438 
-6.03101 -6.6971 -6.80904 -6.54781 -6.35501 -3.21128 -2.56197 -2.2339 -1.4618 
-0.998083 -1.12748 -0.372634 -2.77556e-17 0 -5.23219 -4.6925 -4.33205 -3.74328 
-6.33115 -5.95041 -5.91732 -6.33277 -6.27598 -6.31137 -6.36404 -3.99043 -3.59978 
-3.2156 -4.36848 -4.96047 -5.18616 -5.60726 -4.75536 -5.71514 -5.63332 -5.80681 
-6.00731 -6.0665 -2.85525 -2.47608 -2.06903 -1.70353 0 -2.77556e-17 -0.646915 
-0.374819 -2.77556e-17 -1.33205 -9.78181 -9.64473 -9.63373 -9.04018 -9.66188 -10.1191 
-9.88039 -9.91617 -9.4796 -9.05772 -8.70418 -8.04794 -8.24517 -8.76047 -7.41538 
-7.73149 -8.42146 -7.42275 -7.89893 -8.43656 -6.47025 -6.87275 -5.6688 -6.08711 
-7.48725 -7.51557 -7.25751 -6.91356 -6.66068 -3.10928 -2.9318 -2.51208 -1.80607 
-1.34325 -0.728995 -0.259248 -0.132366 0 -5.23947 -4.93248 -4.76333 -4.16081 
-3.53776 -6.92899 -6.54184 -6.81281 -6.93303 -6.61842 -4.32412 -3.93099 -3.55785 
-3.19733 -4.69358 -5.04354 -5.3012 -6.35239 -5.85103 -5.76679 -6.21732 -6.42218 
-6.65717 -6.66327 -6.24461 -2.81918 -2.44504 -2.11313 -1.85445 -0.956455 2.77556e-17 
0 -0.244846 -0.591593 -1.33682 -10.1542 -10.1626 -10.066 -9.96029 -9.46384 
-8.95453 -10.3734 -9.98197 -9.51472 -9.11935 -8.30498 -8.87583 -7.99546 -8.53381 
-7.35844 -8.19912 -8.37851 -6.59196 -6.93787 -7.1122 -5.69794 -6.2812 -7.78504 
-8.22693 -7.54594 -7.06636 -6.98665 -3.2489 -2.73071 -3.43762 -2.10473 -1.73145 
-1.48237 -1.04458 -0.526751 -1.38778e-17 0 0 0 0 0 
-5.28368 -4.79173 -4.24556 -3.88484 -7.49111 -7.00697 -6.92902 -7.10339 -6.90619 
-7.4774 -6.87917 -5.00816 -4.63972 -4.28007 -3.90046 -3.54301 -3.19354 -5.37542 
-5.43044 -6.09392 -6.47915 -6.85113 -5.7293 -6.99976 -6.83203 -2.83519 -2.47798 
-1.7262 -2.09715 -0.962218 1.38778e-17 -4.16334e-17 -0.602834 -10.5311 -10.6154 -10.659 
-10.2303 -9.85347 -9.86598 -9.38816 -8.88411 -10.4052 -10.017 -9.75057 -9.61267 
-9.24001 -8.95638 -9.40676 -8.7422 -7.39498 -8.81955 -8.03323 -8.74794 -6.58999 
-6.97692 -7.4669 -5.85019 -6.65947 -6.20554 -8.09383 -7.85089 -7.97211 -8.44229 
-7.75606 -7.35422 -3.51687 -3.00012 -3.73333 -3.62176 -2.29923 -1.81249 -1.30675 
-1.04431 -0.866799 -0.530365 0 -5.3722 -5.06212 -4.83101 -4.39101 -4.17432 
-8.03006 -7.55912 -7.42859 -7.53132 -7.44428 -7.23961 -7.66667 -7.94606 -7.94492 
-5.32434 -5.68379 -4.96409 -4.61221 -4.24343 -3.89853 -3.56693 -3.35951 -6.36402 
-6.03065 -6.73064 -6.99655 -7.25091 -6.96786 -7.4302 -2.84522 -2.47485 -1.36567 
-2.13141 -1.75679 -1.01079 -1.38778e-17 -0.244773 -0.656334 -10.0235 -10.37 -10.7331 
-10.7992 -9.67363 -9.31604 -9.52997 -9.69843 -9.26929 -10.8503 -10.4613 -10.0639 
-9.77118 -10.2076 -9.25031 -9.69363 -10.0914 -8.84448 -8.08381 -8.53491 -9.04229 
-9.17858 -7.07441 -7.58695 -5.83334 -6.27251 -6.661 -7.08636 -7.24593 -8.26562 
-8.66645 -8.13314 -4.00432 -3.30507 -3.9209 -2.97195 -2.31655 -2.02758 -1.55855 
-1.39746 -0.990844 -0.504853 -0.252466 -0.322793 0 -5.5053 -5.10097 -4.99695 
-4.49715 -4.11566 -8.37772 -8.47842 -8.21638 -8.65694 -7.92972 -7.98884 -7.82006 
-8.1151 -8.06247 -8.32465 -5.28116 -5.62866 -5.97696 -4.93448 -4.59634 -4.34396 
-3.89485 -3.57454 -3.03593 -6.54424 -6.323 -6.55955 -6.543 -6.43624 -6.86611 
-6.8307 -7.30783 -2.6775 -1.97132 -2.54217 -1.40159 -1.57864 0 -2.77556e-17 
0 -0.272552 -1.12095 -0.731839 -9.51867 -9.91875 -10.2837 -10.6212 -8.75674 
-8.96111 -9.04134 -9.23053 -9.4292 -10.895 -10.6652 -10.2893 -9.64798 -9.9658 
-10.1901 -10.7462 -10.3375 -10.4649 -9.36932 -8.3438 -8.90203 -8.87437 -9.06221 
-7.54871 -5.92388 -6.3127 -6.719 -6.88545 -7.14038 -7.74542 -7.71804 -8.47457 
-9.097 -3.72454 -3.50421 -3.11365 -2.58019 -2.08647 -1.93467 -1.80728 -1.67504 
-1.14232 -0.769261 -0.17433 -0.119267 -2.77556e-17 0 1.38778e-17 -5.9891 -5.60677 
-5.37203 -4.78953 -4.70072 -4.65052 -4.51262 -4.2327 -3.97192 -3.58298 -8.80483 
-8.87736 -8.76053 -9.09911 -8.74274 -8.35914 -8.43233 -7.31411 -7.32944 -8.43522 
-8.10307 -7.28206 -7.81649 -8.53387 -5.61393 -5.94278 -6.42489 -6.29277 -6.5137 
-5.2862 -4.95196 -4.61266 -4.25571 -3.93487 -3.2421 -6.15859 -6.0084 -5.84024 
-5.71975 -6.35658 -6.14484 -6.78373 -2.89911 -2.1739 -1.78563 -3.02224 -3.26365 
-1.40873 -2.77556e-17 -2.77556e-17 -0.357986 1.38778e-17 -1.01546 -9.39064 -9.74935 -10.1776 
-10.5351 -8.46599 -8.41302 -8.60834 -9.00699 -8.80715 -10.5076 -10.886 -10.8437 
-10.3684 -10.0733 -10.5843 -10.9998 -11.011 -11.1444 -9.79726 -8.39197 -8.11055 
-8.51674 -8.56109 -8.74719 -8.46899 -6.74574 -6.32139 -6.72671 -7.1565 -7.29125 
-7.63643 -7.69553 -7.99253 -8.86053 -9.53279 -2.87144 -2.41612 -2.68767 -2.19698 
-1.69312 -1.37329 -0.610536 -0.680923 -1.19187 0 1.38778e-17 -6.93889e-18 -0.218875 
0 0 -5.93153 -5.23665 -4.82302 -4.4625 -4.2026 -3.95054 -3.71778 
-3.78158 -3.17838 -9.21025 -9.25698 -9.13678 -8.79167 -9.24206 -9.22304 -9.24199 
-9.38925 -9.55619 -9.56357 -8.71471 -8.89266 -6.73722 -8.38409 -8.07314 -7.7685 
-6.70666 -7.34916 -6.28468 -5.96159 -6.23146 -5.84169 -5.624 -5.28652 -4.95331 
-4.62625 -4.30658 -3.60706 -5.65627 -5.48811 -5.26241 -5.73489 -5.36721 -6.23545 
-5.68673 -6.19243 -6.22683 -2.58589 -2.41673 -2.16432 -3.61592 -3.25152 -2.86778 
-1.74833 -1.34095 -1.38778e-17 -2.77556e-17 -0.597305 -0.201599 -1.38778e-17 -0.943914 -9.07892 
-9.31864 -9.71572 -10.1148 -8.16737 -8.51782 -7.86567 -8.0818 -8.4312 -8.205 
-10.5457 -10.9135 -10.7116 -11.0872 -10.4914 -11.3957 -11.5717 -11.3588 -11.0722 
-10.2191 -8.15713 -8.3832 -8.12006 -7.87223 -8.07018 -6.12072 -5.65931 -6.36536 
-6.94794 -7.13855 -7.35624 -7.66293 -7.63233 -9.96764 -3.17436 -2.74739 -2.66471 
-2.00515 -2.29269 -1.27073 0 -2.77556e-17 -0.0867068 -0.937757 -6.93889e-18 0 
-4.90559 -4.51101 -4.21572 -3.94931 -3.44676 -3.11408 -3.44255 -9.73273 -9.67806 
-9.86718 -8.72226 -9.48474 -9.98547 -10.2037 -10.4216 -8.33947 -6.38674 -8.02292 
-7.20088 -7.72007 -6.65616 -5.85419 -6.12075 -5.95342 -5.57393 -5.36368 -5.63127 
-5.30891 -4.88843 -4.489 -3.97534 -4.98799 -5.17917 -4.87154 -5.02092 -4.85762 
-5.64894 -5.13287 -5.16411 -6.13578 -2.47774 -3.95382 -4.33676 -3.54923 -3.23442 
-2.1907 -1.71041 -1.31411 -0.401123 -1.38778e-17 0 1.38778e-17 0 -0.530703 
-8.91004 -8.48875 -9.386 -9.75587 -10.128 -7.7615 -8.11016 -7.34247 -7.54349 
-7.82228 -10.1861 -10.6994 -10.9228 -11.203 -11.3194 -11.7907 -11.7999 -11.2477 
-10.6549 -7.59034 -7.99361 -7.73927 -7.12656 -7.60552 -5.6631 -5.30665 -6.21866 
-6.52503 -6.80355 -6.73163 -7.15143 -2.81931 -1.57997 -1.87029 -2.47129 -3.01359 
-1.04102 6.93889e-18 0 0 -0.130996 -0.551003 -4.73927 -4.2538 -4.24164 
-3.77746 -3.44973 -3.25602 -2.80104 -2.89426 -3.27067 -10.3265 -10.2441 -10.1178 
-9.47929 -10.498 -8.28078 -8.75061 -10.0359 -10.6086 -10.8679 -11.0954 -6.33801 
-7.67815 -8.03158 -7.15943 -7.1083 -6.59817 -5.66328 -5.48079 -5.09674 -5.80003 
-4.89261 -4.79416 -5.15025 -5.92127 -5.68373 -5.16932 -5.52049 -5.01695 -4.67624 
-4.68048 -4.48694 -4.42764 -4.25541 -4.67451 -4.62896 -5.12779 -5.59977 -4.59426 
-6.08804 -2.6747 -4.30503 -4.71028 -3.92183 -2.82712 -3.36304 -2.53938 -2.03734 
-0.768161 -1.60827 -1.06291 -0.131644 -1.38778e-17 -8.61688 -8.51889 -9.30562 -8.10894 
-9.51054 -9.89642 -7.20214 -7.64495 -8.03681 -6.68565 -6.89954 -7.36379 -7.03429 
-10.2752 -10.8617 -11.352 -11.6193 -11.8948 -11.496 -12.0585 -12.1709 -11.419 
-11.0513 -7.05495 -7.00791 -7.43392 -7.15646 -6.89479 -6.66865 -5.49967 -5.39659 
-6.01687 -4.60577 -5.00162 -6.43061 -6.64575 -6.19257 -6.6158 -6.8301 -1.15228 
-1.47375 -1.93133 -2.13211 -2.58159 -2.66477 -2.79779 -0.845107 -1.38778e-17 0 
1.38778e-17 0 -0.218985 -0.445809 -4.07708 -3.58753 -3.13225 -2.89717 -3.06765 
-2.44477 -2.00174 -2.41249 -10.5722 -10.4234 -10.2115 -9.43292 -9.90707 -8.88541 
-10.9976 -10.9874 -10.9307 -8.26213 -8.64573 -11.5317 -11.3142 -11.7757 -6.04691 
-6.28394 -7.66633 -7.94617 -7.06371 -6.55379 -6.54275 -5.06855 -5.17806 -5.29465 
-4.90899 -4.62025 -5.35379 -4.38803 -4.17485 -5.4418 -5.61163 -5.34412 -5.70064 
-5.66914 -5.34754 -5.23119 -4.18238 -3.84756 -3.73484 -4.17341 -4.11433 -5.06393 
-5.00585 -5.52784 -3.87756 -4.55035 -5.33797 -4.49285 -4.99014 -4.1287 -3.14666 
-3.9201 -3.44291 -2.82141 -2.33513 -1.91352 -0.303438 -0.460583 -0.569558 -1.18437 
0 0 1.38778e-17 -8.16262 -8.24562 -8.25468 -8.80984 -9.41477 -9.75853 
-9.57024 -9.99109 -7.1815 -7.13931 -7.42712 -7.66661 -6.47851 -6.74098 -6.44155 
-6.58582 -10.4587 -10.684 -12.3098 -12.047 -12.5891 -11.6727 -12.3307 -10.9578 
-11.3168 -6.77456 -7.36856 -6.5796 -6.27315 -5.08119 -5.62394 -4.60781 -4.88699 
-6.03294 -4.41555 -6.01926 -6.48083 -0.766021 -1.09852 -1.31359 -1.71583 -1.92195 
-1.37039 -2.25484 -6.93889e-18 -0.412957 -4.14765 -3.66908 -4.30005 -3.48084 -3.23527 
-2.81306 -2.48262 -2.69129 -2.31286 -1.71207 -1.27941 -1.56695 -1.88317 -2.04154 
-10.8534 -10.2975 -9.63628 -9.27205 -9.52168 -8.91094 -8.56617 -11.1335 -11.6127 
-11.1959 -10.676 -8.25673 -12.2146 -11.9787 -11.7526 -6.02756 -5.47317 -7.68197 
-7.08558 -6.97806 -6.55609 -6.00489 -4.54499 -4.44648 -4.79938 -4.57933 -4.88574 
-4.2213 -3.91769 -3.61247 -4.96265 -5.21929 -5.37052 -5.42735 -5.52033 -5.65518 
-3.50469 -3.34372 -3.22968 -3.65679 -3.41741 -3.60277 -4.97629 -4.49866 -4.27269 
-4.03812 -3.56629 -3.52762 -3.98286 -4.02711 -4.95733 -4.25364 -4.92771 -5.22841 
-4.14039 -4.48587 -3.02596 -3.89462 -2.62989 -2.39955 -1.34402 -1.46418 -2.16543 
-1.57115 -0.113632 0 -0.778934 -0.346231 -7.74756 -7.83717 -8.45836 -9.05539 
-9.49459 -9.68973 -10.029 -10.0919 -6.60013 -6.6648 -6.91203 -7.16739 -7.23771 
-6.21787 -6.24842 -6.1627 -6.23242 -10.3415 -12.5118 -12.49 -12.6042 -12.9142 
-12.8955 -11.5894 -11.9641 -10.9317 -10.6285 -11.252 -6.01415 -6.20149 -6.00179 
-5.07265 -5.08407 -5.57366 -4.02477 -4.36666 -4.91279 -5.51361 -5.9677 -5.73146 
-5.90746 -0.750993 -0.938541 -0.652985 -0.967357 -1.929 -1.45216 -1.02582 0 
-0.0307294 -0.417395 -3.46165 -3.02852 -2.59084 -2.14032 -2.34579 -2.06384 -2.15176 
-1.52192 -1.10575 -1.15996 -0.855727 -10.1679 -10.3723 -9.71742 -9.4803 -8.97763 
-8.45069 -8.29151 -11.3369 -11.2759 -10.9944 -10.5122 -12.6023 -12.4366 -12.0575 
-5.45559 -4.92322 -7.10385 -7.69757 -7.0952 -6.5537 -5.90975 -5.94658 -5.447 
-4.31942 -4.18738 -4.01027 -4.39409 -4.48815 -3.71708 -3.46517 -3.23765 -3.01575 
-4.74315 -5.01758 -5.38209 -2.77763 -2.63733 -2.96883 -3.14135 -3.09028 -4.40537 
-3.9292 -3.89416 -3.05937 -3.47736 -3.02155 -4.3943 -4.5401 -5.06879 -5.55861 
-4.27385 -4.78065 -3.14311 -3.37869 -3.985 -4.16825 -2.88367 -3.0595 -2.30585 
-0.908715 -1.75666 -1.72283 -1.24482 0 -0.0924982 0 -0.61135 -7.5518 
-7.98895 -8.11986 -8.63066 -8.78424 -9.64344 -8.98447 -9.75789 -10.18 -6.20191 
-7.03418 -6.38934 -7.3448 -5.62007 -5.72875 -5.84529 -5.69155 -6.19706 -12.7578 
-12.4398 -12.4632 -12.5278 -12.245 -12.5114 -11.8894 -11.2252 -10.5908 -11.5552 
-10.2778 -5.6449 -5.28318 -5.51606 -5.28114 -5.7675 -3.91001 -4.13848 -4.78571 
-5.07893 -5.30906 -5.49495 -5.09837 -0.631532 -0.232088 -0.595763 -0.56578 -0.621513 
-0.254201 -0.806993 -1.14032 3.46945e-18 0 -3.46945e-18 0 -0.0265394 -0.376953 
-3.68716 -3.29954 -2.82311 -2.39612 -1.93703 -1.48516 -1.69509 -1.25913 -0.813984 
-0.656423 -0.377356 -0.426946 -9.97593 -9.34477 -9.07452 -8.7687 -8.33127 -7.77297 
-7.69387 -10.6936 -11.4388 -11.9538 -10.4904 -12.0221 -12.0829 -12.1455 -4.91769 
-6.80141 -7.10623 -7.51884 -6.03052 -5.49952 -5.46219 -4.93503 -4.82527 -3.7057 
-3.8329 -3.90625 -3.97974 -3.96571 -4.00316 -4.26493 -3.26793 -3.00347 -2.88288 