# vtk DataFile Version 4.2
3D Slicer output. SPACE=LPS
ASCII
DATASET POLYDATA
POINTS 4678 float
-94.1006 8.19003 13.6042 -93.863 8.19003 13.1042 -94.0361 7.69003 13.6042 
-94.1784 8.69003 13.6042 -93.9518 8.69003 13.1042 -94.292 8.19003 14.1055 
-94.2132 7.69003 14.1042 -94.292 8.69003 13.8722 -93.792 7.60476 13.1042 
-93.792 8.19003 12.9671 -93.792 7.19003 13.2896 -93.9326 7.19003 13.6042 
-94.1254 7.19003 14.1042 -94.292 9.02195 13.6042 -94.1378 9.19003 13.1042 
-93.792 8.69003 12.7395 -93.792 8.8641 12.6042 -94.3786 8.69003 14.1042 
-94.4814 8.19003 14.6042 -94.292 7.69003 14.3212 -94.5326 9.19003 14.1042 
-93.7098 7.19003 13.1042 -93.5619 7.69003 12.6042 -93.6224 8.19003 12.6042 
-93.6226 6.69003 13.1042 -93.792 6.69003 13.4398 -93.8796 6.69003 13.6042 
-94.0895 6.69003 14.1042 -94.292 6.76411 14.6042 -94.292 7.19003 14.5315 
-94.3564 9.19003 13.6042 -94.292 9.19003 13.4495 -94.292 9.58799 13.1042 
-93.9083 9.19003 12.6042 -94.0731 9.69003 12.6042 -93.7368 8.69003 12.6042 
-93.792 9.19003 12.3856 -93.4707 8.69003 12.1042 -94.5353 8.69003 14.6042 
-94.3925 7.69003 14.6042 -94.596 8.19003 15.1042 -94.5142 7.69003 15.1042 
-94.6693 9.69003 14.1042 -94.5126 9.69003 13.6042 -94.6916 9.19003 14.6042 
-94.792 9.46548 14.6042 -94.792 9.69003 14.4013 -93.4629 7.19003 12.6042 
-93.2632 7.69003 12.1042 -93.292 7.19003 12.2798 -93.292 7.8485 12.1042 
-93.3543 8.19003 12.1042 -93.3874 6.69003 12.6042 -93.6184 6.19003 13.1042 
-93.792 6.19003 13.4017 -93.9012 6.19003 13.6042 -94.2222 6.19003 14.6042 
-94.0799 6.19003 14.1042 -94.443 6.69003 15.1042 -94.292 6.19003 14.8656 
-94.455 7.19003 15.1042 -94.292 9.69003 13.0286 -93.792 9.69003 12.1112 
-94.2201 10.19 12.6042 -93.9278 10.19 12.1042 -94.292 10.19 12.7361 
-93.6194 9.19003 12.1042 -93.292 8.69003 11.8078 -93.292 8.19003 12.0024 
-94.6545 8.69003 15.1042 -94.6582 8.19003 15.6042 -94.5639 7.69003 15.6042 
-94.4967 7.19003 15.6042 -94.792 10.19 14.1174 -94.6577 10.19 13.6042 
-94.4909 10.19 13.1042 -94.792 9.19003 15.1433 -94.872 9.69003 14.6042 
-94.9667 9.69003 15.1042 -94.9882 10.19 14.6042 -93.292 6.69003 12.4103 
-92.935 7.69003 11.6042 -93.1908 7.19003 12.1042 -93.1101 6.69003 12.1042 
-93.0504 8.19003 11.6042 -93.292 6.19003 12.4363 -93.3783 6.19003 12.6042 
-93.4505 5.69003 12.6042 -93.6505 5.69003 13.1042 -93.792 5.69003 13.3265 
-93.9684 5.69003 13.6042 -94.1462 5.69003 14.1042 -94.2535 5.69003 14.6042 
-94.3559 6.19003 15.1042 -94.4739 6.69003 15.6042 -94.4274 6.19003 15.6042 
-94.292 5.69003 14.886 -93.792 10.19 11.8757 -93.4867 9.69003 11.6042 
-94.292 10.4401 12.6042 -94.0874 10.69 12.1042 -93.292 9.16853 11.6042 
-93.1713 8.69003 11.6042 -94.792 8.74321 15.6042 -94.792 8.27553 16.1042 
-94.5676 7.69003 16.1042 -94.4783 7.19003 16.1042 -94.792 10.6587 13.6042 
-94.9292 10.69 14.1042 -94.6293 10.69 13.1042 -94.8816 9.19003 15.6042 
-95.1059 10.19 15.1042 -95.0406 9.69003 15.6042 -95.1272 10.69 14.6042 
-93.0905 6.19003 12.1042 -92.792 7.69003 11.3619 -92.792 7.19003 11.4998 
-92.8577 7.19003 11.6042 -92.792 6.67574 11.6042 -92.7606 8.19003 11.1042 
-92.8787 8.69003 11.1042 -92.792 8.31711 11.1042 -93.292 5.69003 12.2727 
-93.5746 5.19003 12.6042 -93.768 5.19003 13.1042 -94.0439 5.19003 13.6042 
-94.292 5.54604 14.6042 -94.292 5.19003 14.2484 -94.2368 5.19003 14.1042 
-94.3154 5.69003 15.1042 -94.3493 5.69003 15.6042 -94.4271 6.69003 16.1042 
-94.3888 6.19003 16.1042 -94.5031 5.19003 15.1042 -93.792 10.7339 11.6042 
-93.6382 10.19 11.6042 -93.292 9.69003 11.2496 -93.292 9.946 11.1042 
-94.3673 10.69 12.6042 -94.292 10.69 12.4673 -94.2928 11.19 12.1042 
-93.9621 11.19 11.6042 -93.0323 9.19003 11.1042 -94.9212 8.69003 16.1042 
-95.0089 9.19003 16.1042 -94.792 8.19003 16.2885 -94.5923 7.69003 16.6042 
-94.5058 7.19003 16.6042 -94.4192 6.69003 16.6042 -94.938 11.19 13.6042 
-94.792 11.19 13.2154 -95.0726 11.19 14.1042 -94.7455 11.19 13.1042 
-94.5232 11.19 12.6042 -95.2556 10.69 15.1042 -95.1964 10.19 15.6042 
-95.292 10.69 15.3944 -95.1433 9.69003 16.1042 -95.2498 11.19 14.6042 
-95.292 10.8055 15.1042 -95.292 11.19 14.7314 -92.7903 6.19003 11.6042 
-92.792 6.17066 11.6042 -92.8678 5.69003 11.6042 -93.1949 5.69003 12.1042 
-92.5407 7.19003 11.1042 -92.6236 7.69003 11.1042 -92.5114 6.69003 11.1042 
-92.5506 6.19003 11.1042 -92.391 8.19003 10.6042 -92.792 8.69003 10.9462 
-92.589 8.69003 10.6042 -93.292 5.19003 12.0676 -93.5289 4.69003 12.1042 
-93.7411 4.69003 12.6042 -93.792 5.11397 13.1042 -93.792 4.69003 12.7396 
-93.9353 4.69003 13.1042 -94.1423 4.69003 13.6042 -94.292 4.87382 14.1042 
-94.434 5.19003 14.6042 -94.4465 5.19003 15.6042 -94.3512 5.69003 16.1042 
-94.4228 5.19003 16.1042 -94.3524 6.19003 16.6042 -94.5583 4.69003 14.6042 
-94.688 4.69003 15.1042 -94.6676 4.69003 15.6042 -93.4857 10.69 11.1042 
-93.792 11.19 11.3415 -93.3548 10.19 11.1042 -93.2179 9.69003 11.1042 
-93.292 10.19 11.0019 -93.0284 10.19 10.6042 -92.8904 9.69003 10.6042 
-94.4735 11.69 12.1042 -94.292 11.69 11.7717 -94.1884 11.69 11.6042 
-92.7469 9.19003 10.6042 -92.792 9.33906 10.6042 -94.9607 8.69003 16.6042 
-95.0677 9.19003 16.6042 -94.8238 8.19003 16.6042 -94.6476 7.69003 17.1042 
-94.5121 7.19003 17.1042 -94.3764 6.69003 17.1042 -95.1233 11.69 13.6042 
-94.792 11.3399 13.1042 -95.2267 11.69 14.1042 -95.292 11.503 14.6042 
-94.6952 11.69 12.6042 -94.792 11.69 12.8374 -95.308 10.69 15.6042 
-95.2632 10.19 16.1042 -95.292 10.4434 16.1042 -95.4374 11.19 15.6042 
-95.3874 11.19 15.1042 -95.2089 9.69003 16.6042 -95.292 10.1818 16.6042 
-95.4408 11.69 15.1042 -92.792 5.69003 11.4663 -92.9845 5.19003 11.6042 
-92.292 7.19003 10.7353 -92.292 6.69003 10.7741 -92.2381 7.69003 10.6042 
-92.292 7.90571 10.6042 -92.292 6.19003 10.6899 -92.292 5.85931 10.6042 
-92.5888 5.69003 11.1042 -92.292 8.19003 10.462 -92.292 8.66423 10.1042 
-92.4407 9.19003 10.1042 -93.292 4.69003 11.7059 -93.6234 4.19003 11.6042 
-93.792 4.19003 11.8994 -93.792 4.32847 12.1042 -93.792 4.58703 12.6042 
-94.0401 4.19003 12.6042 -94.238 4.19003 13.1042 -94.292 4.37931 13.6042 
-94.292 4.19003 13.2463 -94.292 4.69003 14.0012 -94.3324 4.69003 14.1042 
-94.6504 4.69003 16.1042 -94.3868 5.69003 16.6042 -94.4706 5.19003 16.6042 
-94.5921 4.69003 16.6042 -94.3165 6.19003 17.1042 -94.336 5.69003 17.1042 
-94.5894 4.19003 14.1042 -94.7604 4.19003 14.6042 -94.792 4.35627 15.1042 
-94.792 4.19003 14.7501 -94.792 4.33014 15.6042 -93.292 10.69 10.7874 
-93.638 11.19 11.1042 -93.792 11.577 11.1042 -92.792 10.19 10.2696 
-92.792 9.69003 10.4634 -93.1793 10.69 10.6042 -92.792 10.5674 10.1042 
-94.6309 12.19 12.1042 -94.292 11.949 11.6042 -94.792 12.006 12.6042 
-93.792 11.69 11.0289 -92.5469 9.69003 10.1042 -94.95 8.69003 17.1042 
-95.1007 9.19003 17.1042 -94.8018 8.19003 17.1042 -94.5563 7.69003 17.6042 
-94.7039 8.19003 17.6042 -94.4164 7.19003 17.6042 -94.2991 6.69003 17.6042 
-94.292 6.19003 17.2561 -94.9081 11.69 13.1042 -95.2567 12.19 13.6042 
-95.0617 12.19 13.1042 -95.292 11.9235 14.1042 -95.292 12.19 13.756 
-95.292 11.69 14.4761 -95.3163 11.69 14.6042 -95.3215 10.69 16.1042 
-95.3523 10.69 16.6042 -95.5121 11.69 15.6042 -95.4469 11.19 16.1042 
-95.2299 9.69003 17.1042 -95.292 9.97005 17.1042 -95.3353 10.19 17.1042 
-95.5156 12.19 15.1042 -95.4247 12.19 14.6042 -92.792 5.19003 11.2858 
-92.792 4.91542 11.1042 -93.2293 4.69003 11.6042 -92.1797 6.69003 10.6042 
-92.198 7.19003 10.6042 -91.856 7.69003 10.1042 -92.0325 8.19003 10.1042 
-92.2396 6.19003 10.6042 -91.792 6.19003 10.0387 -92.0105 5.69003 10.1042 
-92.292 5.69003 10.5502 -92.3873 5.19003 10.6042 -92.6782 5.19003 11.1042 
-91.8886 8.69003 9.60419 -92.292 9.19003 9.86636 -93.292 4.61056 11.6042 
-93.292 4.19003 11.0844 -93.7075 3.69003 11.1042 -93.792 3.69003 11.232 
-93.792 3.98391 11.6042 -93.8822 4.19003 12.1042 -94.1842 3.69003 12.1042 
-94.0057 3.69003 11.6042 -94.292 3.69003 12.3614 -94.292 3.85688 12.6042 
-94.6593 3.69003 13.1042 -94.4156 4.19003 13.6042 -94.792 4.20538 16.1042 
-94.4171 5.19003 17.1042 -94.5135 4.69003 17.1042 -94.7489 4.19003 16.6042 
-94.6819 4.19003 17.1042 -94.292 5.69003 17.2603 -94.792 3.8655 14.1042 
-95.0219 3.69003 14.6042 -94.8367 4.19003 15.1042 -95.0743 3.69003 15.1042 
-94.838 4.19003 15.6042 -93.292 11.1149 10.6042 -93.4705 11.69 10.6042 
-92.677 10.19 10.1042 -92.792 10.69 10.0503 -93.0006 11.19 10.1042 
-92.4328 10.69 9.60419 -94.3812 12.19 11.6042 -94.7658 12.69 12.1042 
-94.5606 12.69 11.6042 -94.792 12.19 12.4822 -94.292 12.19 11.4338 
-94.1048 12.19 11.1042 -94.8457 12.19 12.6042 -93.7839 12.19 10.6042 
-92.2695 9.69003 9.60419 -92.3577 10.19 9.60419 -92.292 9.79534 9.60419 
-94.94 8.69003 17.6042 -94.792 8.38857 17.6042 -95.13 9.19003 17.6042 
-94.4584 7.69003 18.1042 -94.653 8.19003 18.1042 -94.3197 7.19003 18.1042 
-94.292 7.08393 18.1042 -94.234 6.19003 17.6042 -94.2152 6.69003 18.1042 
-94.1856 6.19003 18.1042 -95.292 12.3967 13.6042 -95.1599 12.69 13.1042 
-94.9512 12.69 12.6042 -95.3516 12.19 14.1042 -95.4206 12.69 14.1042 
-95.437 10.69 17.1042 -95.4793 11.19 16.6042 -95.5473 11.69 16.1042 
-95.5395 12.19 15.6042 -95.2354 9.69003 17.6042 -95.292 9.87484 17.6042 
-95.3864 10.19 17.6042 -95.5308 12.69 15.1042 -95.4887 12.69 14.6042 
-92.792 4.69003 10.9044 -92.9219 4.69003 11.1042 -92.5984 4.69003 10.6042 
-91.792 6.69003 10.1016 -91.792 7.19003 10.0572 -91.792 7.69003 9.99578 
-91.792 8.19003 9.7764 -91.792 8.48216 9.60419 -91.792 5.69003 9.9109 
-91.292 5.98759 9.60419 -91.2431 6.19003 9.60419 -91.2423 6.69003 9.60419 
-92.1006 5.19003 10.1042 -92.292 5.19003 10.4249 -91.792 8.69003 9.43812 
-92.1153 9.19003 9.60419 -93.292 3.80083 10.6042 -92.9824 4.19003 10.6042 
-93.3754 3.69003 10.6042 -93.792 3.57829 11.1042 -94.0652 3.19003 11.1042 
-94.292 3.51732 12.1042 -94.292 3.19003 11.5155 -94.292 3.2564 11.6042 
-94.4137 3.69003 12.6042 -94.5467 3.19003 12.1042 -94.792 3.50324 13.1042 
-94.7698 3.69003 13.6042 -95.0569 3.69003 16.1042 -94.792 4.09143 16.6042 
-94.292 5.19003 17.4429 -94.3475 4.69003 17.6042 -94.5532 4.19003 17.6042 
-94.292 4.87513 17.6042 -94.792 3.98406 17.1042 -94.1977 5.69003 17.6042 
[...]
POINT_DATA 4678
SCALARS scalars float
LOOKUP_TABLE default
-5.56804 -5.20437 -5.86155 -5.16053 -4.87531 -5.86164 -6.26437 -5.32287 -5.36851 
-5.05746 -5.67997 -5.99828 -6.49627 -4.89639 -4.46198 -4.68214 -4.46307 -5.46849 
-6.17421 -6.39173 -5.09096 -5.49366 -4.8248 -4.67662 -5.67244 -6.00997 -6.17833 
-6.58432 -6.86378 -6.92037 -4.76526 -4.66886 -4.14301 -4.18418 -3.76555 -4.5777 
-4.07105 -4.03342 -5.79656 -6.56314 -6.50398 -6.87913 -4.72909 -4.38502 -5.43637 
-5.24643 -4.94502 -4.9856 -4.28994 -4.65533 -4.2397 -4.14164 -5.18128 -5.76498 
-5.86873 -5.94398 -6.38627 -6.15501 -7.03759 -6.51347 -7.266 -4.01603 -3.50162 
-3.36031 -3.07362 -3.44145 -3.93327 -3.70364 -4.03029 -6.14122 -6.84798 -7.20896 
-7.58301 -4.39492 -4.02246 -3.67942 -5.82502 -5.09592 -5.47214 -4.77069 -4.9916 
-3.75163 -4.47465 -4.6832 -3.59756 -5.26386 -5.42487 -5.13902 -5.32589 -5.40208 
-5.50207 -5.72036 -5.96556 -6.63304 -7.30384 -6.90329 -6.11384 -2.95328 -3.25701 
-3.16359 -2.66147 -3.39791 -3.47876 -6.46618 -7.1502 -7.55249 -7.91366 -3.70177 
-4.0634 -3.31503 -6.17079 -5.16454 -5.85972 -4.46795 -4.93741 -3.49983 -3.84356 
-3.95047 -4.18825 -3.06527 -2.93121 -3.02834 -5.02609 -4.68081 -4.87487 -5.06458 
-5.84071 -5.35523 -5.28774 -6.23288 -6.51904 -7.59422 -7.20367 -5.80273 -2.35009 
-2.8177 -2.97494 -2.79659 -2.97165 -2.88334 -2.26647 -1.9676 -2.84761 -6.87747 
-6.55929 -7.34301 -7.90967 -8.25866 -7.89213 -3.36238 -3.05737 -3.7644 -2.97229 
-2.60377 -4.87844 -5.56768 -5.11717 -6.26042 -4.1848 -4.81554 -4.29349 -4.45704 
-4.46877 -4.78291 -4.97379 -3.44305 -3.22879 -3.70308 -4.01095 -2.51414 -2.7613 
-2.3902 -4.50193 -4.03296 -4.21721 -4.8053 -4.2706 -4.41752 -4.6295 -5.01827 
-5.52652 -6.11469 -6.82396 -6.43521 -7.51668 -5.1041 -5.38086 -5.69738 -2.1417 
-1.82631 -2.58185 -2.81528 -2.53344 -2.19611 -2.23303 -1.89573 -1.67013 -1.56399 
-2.2945 -2.27321 -7.25927 -6.95414 -7.57807 -8.27886 -8.57506 -8.20791 -3.0755 
-2.87521 -3.49144 -4.01435 -2.26388 -2.44486 -5.2906 -5.97798 -5.83871 -5.03536 
-4.61143 -6.6676 -6.39799 -4.35456 -4.65973 -4.3701 -3.0721 -3.38395 -2.69347 
-2.60802 -3.63228 -3.79308 -4.34018 -2.36209 -1.86401 -1.73762 -3.90994 -3.35383 
-3.44867 -3.66178 -4.1182 -3.72629 -3.93492 -4.34356 -3.99754 -4.81254 -4.86125 
-6.02696 -7.13502 -6.75442 -6.37683 -7.84209 -7.47384 -4.41107 -4.67675 -5.10753 
-4.76028 -5.40904 -1.99219 -1.70665 -1.37509 -1.79778 -2.06668 -1.90141 -1.55702 
-1.55469 -1.36533 -2.06392 -1.24015 -1.64694 -7.64855 -7.35658 -7.95621 -8.65666 
-8.34311 -8.89851 -8.54076 -7.94563 -2.65913 -2.80977 -2.37447 -3.37204 -2.94032 
-3.80654 -3.91629 -5.70769 -6.13393 -4.79258 -5.46179 -7.07965 -6.93091 -6.8173 
-4.12024 -3.67517 -4.27697 -3.96065 -3.8798 -3.22273 -2.9404 -2.17743 -1.98177 
-3.55591 -3.0327 -3.50202 -3.87428 -4.08088 -4.22551 -1.29672 -1.47371 -3.79588 
-3.20199 -2.67973 -2.71704 -3.13724 -3.52285 -3.02938 -2.83631 -3.13074 -3.39143 
-3.43885 -4.16403 -5.65587 -7.10435 -6.74233 -6.00361 -6.37829 -7.58713 -4.11817 
-4.2503 -4.97441 -4.56461 -5.29879 -1.53282 -1.03398 -1.60169 -1.46114 -1.20219 
-0.94168 -1.18771 -1.24649 -0.846659 -1.85332 -1.0725 -0.86568 -1.95289 -0.591214 
-1.09332 -1.02221 -1.07694 -8.04683 -8.2233 -7.76643 -9.04528 -8.7404 -9.23435 
-9.16017 -8.18725 -8.88591 -8.53667 -2.70431 -2.11091 -1.66842 -3.23982 -3.00227 
-6.5712 -5.89773 -5.23172 -4.5615 -7.49764 -7.40351 -7.24786 -3.89556 -3.44807 
-3.67861 -3.73401 -3.59613 -2.74146 -2.4009 -2.07296 -1.64089 -1.36032 -3.31251 
-2.75321 -2.59248 -2.24476 -3.90452 -4.02782 -1.12684 -1.18059 -2.65414 -3.06693 
-2.53817 -2.56372 -2.16722 -2.85955 -2.30474 -2.40248 -3.22644 -2.53126 -3.26235 
-3.69335 -5.25473 -5.9294 -7.36558 -7.13744 -6.77568 -7.27041 -6.22406 -7.84088 
-3.96115 -3.73772 -3.84951 -4.24899 -4.89709 -4.6295 -0.885736 -0.349215 -0.574714 
-1.0046 -0.785907 -0.72448 -0.907023 -0.772844 -1.15425 -0.483509 -0.551393 -0.544043 
-0.145286 -0.825391 -0.417532 -0.162754 0 0 -0.552539 -8.45246 -8.58331 
-8.17998 -7.92136 -9.44338 -9.59328 -9.33356 -9.14589 -9.24615 -8.2039 -8.90821 
-2.55825 -2.45908 -1.85882 -1.40739 -2.77216 -3.22646 -6.34134 -7.01224 -5.67505 
-5.00743 -4.34202 -4.7932 -7.82734 -7.67957 -3.6818 -3.3168 -3.45553 -2.93373 
-2.9914 -2.15781 -1.96937 -1.70485 -1.46897 -0.795851 -0.99082 -3.59234 -3.48122 
-3.0057 -2.92662 -2.22007 -2.56027 -1.79979 -3.57972 -3.34674 -0.699944 -0.660376 
-2.50072 -2.40393 -2.01928 -1.50448 -1.60924 -1.81317 -1.84593 -2.73969 -1.95468 
-2.20527 -2.97561 -3.23827 -4.92024 -5.62762 -5.04242 -7.49444 -7.27164 -6.50126 
-7.19624 -6.83874 -6.60255 -7.32544 -7.88048 -6.00735 -3.47968 -3.43491 -3.11084 
-4.16398 -4.51119 -0.255384 0 1.38778e-17 -0.10122 -0.487355 -0.440013 -0.360877 
-0.406907 -0.141134 -0.966843 -0.351064 -1.38778e-17 -6.93889e-18 1.38778e-17 1.38778e-17 -0.149541 
-1.38778e-17 -0.721732 0 1.38778e-17 0 0 -0.0340483 -0.432391 -0.12178 
-8.86487 -8.93107 -8.52454 -8.04715 -9.69156 -9.58184 -9.94174 -9.40389 -8.96436 
-9.61124 -8.58481 -9.30038 -2.24514 -2.24367 -1.62681 -1.1732 -2.54983 -2.39956 
-3.01288 -3.47559 -6.1216 -6.78589 -7.20836 -5.45778 -5.24853 -4.13521 -4.5883 
-7.71375 -7.57428 -7.09996 -3.93442 -2.74858 -2.29896 -2.72865 -1.77612 -1.51746 
-1.23887 -1.15316 -0.313073 -0.350766 -0.826158 -3.22087 -3.003 -2.14428 -2.89592 
-2.24655 -1.33905 -1.84498 -1.23317 -3.33096 -2.78756 -2.01419 -2.34203 -2.00495 
-1.7743 -1.36154 -1.8856 -0.852183 -0.905058 -1.25185 -1.66902 -1.18246 -1.61158 
-2.27677 -2.04877 -1.5918 -2.53428 -2.98782 -2.63314 -4.53207 -5.26547 -5.66357 
-4.92172 -7.54169 -6.4041 -7.37893 -6.69942 -7.285 -7.47143 -6.06938 -7.9477 
-8.26996 -3.22908 -3.78124 -3.60952 -2.84618 -2.72568 -2.81133 -2.4063 -4.14989 
0 0 -6.93889e-18 0 0 -0.0463143 0 -0.240846 0 
-1.38778e-17 6.93889e-18 0 0 -0.279429 6.93889e-18 1.38778e-17 -0.0488998 -0.501494 
-0.179662 0 0 0 0 -8.43913 -8.7238 -7.9612 -9.85094 
-9.75821 -10.3209 -9.82832 -8.92079 -9.33781 -8.85186 -10.0028 -9.90189 -9.52938 
-8.99822 -2.08775 -1.88293 -1.42003 -0.959393 -2.4934 -2.81022 -2.6659 -3.27202 
-3.73425 -5.91147 -6.38756 -5.91458 -6.73459 -6.62775 -5.60917 -5.0375 -5.13893 
-4.39069 -7.5245 -7.01304 -7.34035 -6.53352 -2.24162 -1.98421 -0.7574 -0.513836 
-0.208343 -3.29495 -3.22695 -3.10145 -2.62637 -2.57413 -2.10984 -1.72114 -1.06609 
-1.07006 -0.858512 -2.78274 -2.62391 -1.85925 -1.74145 -1.67999 -1.12522 -1.19681 
-1.36496 -0.702583 -1.23141 -0.706391 -1.00805 -0.403169 -1.27872 -0.936167 -1.37505 
-1.75839 -1.94714 -2.43952 -0.91571 -1.28805 -2.10754 -3.82626 -4.20448 -4.60759 
-5.49685 -5.33202 -5.02374 -7.6243 -6.49592 -6.87274 -7.41318 -7.6318 -8.04603 
-5.78073 -6.18791 -8.37045 -8.68762 -3.06468 -3.42456 -2.71713 -2.57047 -1.89688 
-2.07207 3.46945e-18 -6.93889e-18 0 -2.77556e-17 -6.93889e-18 0 0 -2.77556e-17 
-0.316911 -0.780323 -1.38778e-17 0 2.77556e-17 -8.38758 -7.48521 -7.89247 -7.41519 
-10.0876 -10.2895 -9.77686 -10.0329 -9.28511 -8.97178 -8.7993 -8.36854 -8.31438 
-9.7221 -10.4649 -10.3085 -9.44086 -1.69375 -2.34674 -2.15471 -1.23593 -2.69617 
-3.07891 -3.36096 -3.95229 -3.48566 -6.25639 -5.77166 -5.4366 -6.14469 -4.57636 
-4.67286 -4.95617 -4.4911 -6.95331 -6.64582 -6.03727 -6.45172 -6.12413 -2.21638 
-1.63099 -2.18729 -1.92794 -0.422156 -0.357517 -0.276262 2.77556e-17 -2.77556e-17 2.77556e-17 
-2.77764 -3.05231 -2.93132 -2.34361 -1.95827 -1.52912 -0.966378 -0.774497 -0.639548 
-0.364256 -1.3101 -1.02064 -1.08654 -0.780193 -0.577416 -0.295458 -0.242424 -0.314881 
-0.536751 -0.596152 -2.77556e-17 -2.77556e-17 0 2.77556e-17 -0.428468 -0.711273 -1.83494 
-1.41029 -0.268594 -0.57394 -1.07305 -1.14812 -1.70104 -3.48568 -4.10434 -4.43634 
-5.45302 -4.61146 -4.75004 -5.18603 -6.64094 -6.90121 -7.09503 -7.67505 -7.58792 
-7.80463 -7.73218 -8.4962 -8.19497 -8.63507 -8.62095 -6.07605 -9.14305 -3.09379 
-2.35764 -2.0127 -2.39217 -1.65311 -1.57343 -2.77556e-17 0 -0.190817 -0.620125 
-1.06703 -8.26775 -7.83711 -7.36295 -6.93819 -6.88099 -10.2727 -9.75907 -10.2351 
-9.2459 -9.44465 -8.75726 -8.78216 -8.27495 -8.43405 -7.79645 -9.75347 -10.1379 
-10.633 -10.7354 -10.6882 -9.46299 -1.51173 -1.9681 -2.61667 -2.42771 -2.81569 
-2.87485 -3.02531 -4.11904 -3.67403 -5.28043 -5.64798 -4.19733 -4.50383 -4.78453 
-4.29962 -4.01311 -6.39271 -5.53106 -5.9637 -5.89385 -1.33335 -1.58752 -2.17947 
-1.54138 -1.53514 0 2.77556e-17 2.77556e-17 2.77556e-17 0 0 -2.77556e-17 
-0.252557 -2.47855 -2.78703 -2.7889 -2.81439 -2.83782 -2.7197 -2.65662 -2.28534 
-2.16583 -1.71786 -1.32671 -0.702028 -1.23486 -0.456056 -0.554003 -0.271862 -0.935295 
-0.743609 -0.51782 0 2.77556e-17 2.77556e-17 2.77556e-17 2.77556e-17 1.38778e-17 0 
0 0 -5.55112e-17 0 -0.720283 -1.0029 -1.08899 0 0 
-0.420284 -0.470966 -3.19354 -3.89347 -3.61269 -4.31691 -5.89466 -5.63268 -4.48994 
-4.04591 -5.07791 -6.29492 -7.10054 -6.83007 -7.32203 -8.05263 -7.82213 -7.89422 
-8.63871 -8.63779 -8.61813 -8.36864 -8.82458 -9.00163 -2.78659 -2.22129 -1.802 
-1.69334 -1.30731 -2.72444 -1.31627 -0.947452 0 0 2.77556e-17 -0.460743 
-0.895514 -7.34001 -7.32297 -6.84438 -6.35724 -10.47 -9.73872 -10.2199 -9.23408 
-9.71329 -8.73043 -8.88386 -8.24646 -8.2649 -7.76875 -7.86389 -7.29252 -9.92377 
-10.6362 -10.7114 -10.2091 -10.6242 -11.1959 -9.31485 -9.64475 -1.33353 -1.78028 
-2.37027 -1.97878 -2.31822 -2.39367 -2.56059 -3.23057 -2.7765 -3.73783 -5.11475 
-3.75663 -3.55293 -4.62817 -3.82755 -4.13873 -5.00751 -5.43955 -5.81004 -5.35155 
-5.36434 -1.33351 -2.16607 -1.83425 -1.56452 -1.1877 -0.891066 0 2.77556e-17 
-2.18361 -2.33187 -2.29665 -2.93279 -2.56618 -2.96559 -2.14226 -2.06129 -2.47483 
-1.56062 -0.609328 -1.00799 -0.122967 -6.93889e-18 1.38778e-17 -0.252567 -0.364338 0 
-0.364363 -0.807418 -0.910626 -0.457608 2.77556e-17 -0.252517 -0.134422 -0.330367 -0.908528 
-1.38778e-17 -3.10792 -3.35136 -3.36053 -3.80467 -6.09778 -5.37904 -5.399 -5.87084 
-4.25743 -4.94026 -4.71905 -6.32335 -6.47552 -6.58004 -7.06853 -7.49818 -8.17758 
-8.596 -8.2142 -7.91332 -7.53469 -8.7693 -9.22984 -8.89159 -9.22801 -9.24086 
-8.79605 -2.09361 -2.50524 -1.81895 -1.56877 -0.600261 -0.987485 -1.28143 -0.622979 
-0.261625 2.77556e-17 0 -0.268911 -0.68732 -6.82687 -6.33216 -9.97372 -9.21974 
-9.70554 -8.72543 -8.23654 -8.42492 -7.75048 -7.2754 -6.81381 -10.0101 -10.3419 
-10.4435 -11.0823 -10.7038 -10.1997 -10.5086 -11.2158 -9.79641 -9.83608 -1.09537 
-1.69203 -1.28859 -2.23012 -1.81177 -1.81184 -1.90748 -2.08676 -2.31741 -3.30286 
-3.42476 -2.85174 -2.40589 -3.35873 -3.08153 -4.49682 -4.44573 -4.04923 -3.65638 
-3.5926 -4.90985 -4.92146 -5.26322 -5.79498 -5.30128 -0.887246 -1.66998 -0.91436 
-0.971761 -0.651926 -0.737868 -2.20525 -2.02951 -2.41848 -2.75015 -2.92112 -2.00219 
-2.86238 -2.42999 -1.50557 -1.33775 -0.936573 -0.329209 -1.38778e-17 0 -1.38778e-17 
-1.38778e-17 0 2.77556e-17 -0.276375 -0.294813 -0.226637 0 0 1.38778e-17 
1.38778e-17 0 -2.77556e-17 1.38778e-17 -2.92717 -3.13921 -3.74534 -6.51312 -5.18799 
-5.66459 -6.35391 -6.14924 -5.76087 -4.07364 -4.53051 -5.00933 -6.67695 -6.84847 
-7.34675 -8.33918 -8.84058 -7.88799 -8.4265 -7.86683 -7.43356 -7.41832 -7.55534 
-9.29043 -9.7648 -9.57775 -9.14322 -2.25145 -2.69179 -1.396 -1.13043 -1.57584 
1.38778e-17 -1.38778e-17 -0.2892 -0.645207 -5.55112e-17 0 -2.77556e-17 0 -0.203948 
-0.628956 -6.31833 -9.20297 -9.20887 -8.71772 -9.69525 -9.86409 -8.23527 -8.23024 
-7.74775 -7.26891 -7.26142 -6.78758 -10.2008 -10.9041 -10.9891 -11.4095 -11.4691 
-10.7034 -10.1958 -10.1954 -10.707 -11.2139 -9.74751 -10.3171 -10.393 -0.904041 
-1.57089 -1.33432 -1.29469 -1.31058 -1.41997 -1.61466 -1.8537 -1.96895 -2.64132 
-2.18736 -1.73759 -2.89644 -3.17983 -2.71167 -2.53709 -4.39298 -4.00101 -3.51147 
-3.10093 -4.83379 -5.51872 -5.78425 -4.92082 -5.27596 -0.9862 -1.74079 -1.37906 
-0.529099 -0.161891 -0.129741 -0.124046 -0.208605 -1.8187 -2.46726 -2.53318 -2.23167 
-2.00062 -1.51726 -2.66642 -2.50992 -2.70566 -2.22159 -1.01204 -0.450166 -0.636316 
-0.333095 -2.77556e-17 -2.77556e-17 0 -2.77556e-17 -2.77556e-17 1.38778e-17 -2.95466 -3.59509 
-3.41821 -5.4942 -5.94818 -6.64662 -6.48782 -3.8926 -4.38678 -4.86001 -5.35278 
-6.77837 -7.14197 -6.9767 -6.95994 -8.8715 -7.83227 -8.32775 -8.49059 -7.68187 
-7.37152 -7.36257 -7.32952 -9.38434 -9.77951 -10.1889 -9.8356 -9.87567 -10.2914 
-8.85447 -8.83539 -2.03232 -2.49694 -0.910466 -0.455326 -1.38121 -1.38778e-17 2.77556e-17 
-0.0219249 2.77556e-17 1.38778e-17 2.77556e-17 -0.468079 -6.2936 -9.18702 -8.70976 -8.70788 
-8.55273 -9.69279 -7.74796 -8.22673 -6.77428 -6.77281 -7.26071 -7.5678 -10.586 
-10.7454 -11.2148 -11.5588 -11.7288 -11.2254 -11.219 -11.3087 -10.1996 -10.3286 
-9.69182 -10.7142 -11.0322 -10.48 -10.9403 -10.3941 -0.642519 -0.22724 -0.8374 
-0.784772 -0.805237 -1.10232 -1.32956 -1.38739 -1.54348 -1.29715 -2.02155 -1.81157 
-1.52805 -1.08224 -2.43741 -2.24853 -2.57068 -2.07816 -3.89394 -4.38944 -4.32416 
-3.85966 -3.02775 -3.40101 -2.90958 -4.7869 -5.26177 -5.7763 -4.77599 -4.68849 
-1.09053 -1.69747 -0.18584 -0.832085 -0.222097 1.38778e-17 0 0 -1.38778e-17 
1.38778e-17 0 0 -1.88747 -1.91087 -2.18987 -2.40115 -2.01979 -1.70596 
-1.63069 -2.1779 -2.00418 -1.1486 -1.646 -0.824452 -0.450437 -0.594298 2.77556e-17 
-2.77556e-17 -2.80305 -3.2789 -3.76207 -5.9663 -6.04386 -6.04507 -6.46834 -6.48368 
-5.98989 -4.24974 -4.54491 -4.74376 -5.24095 -5.8489 -5.607 -6.92476 -6.91482 
-6.87794 -6.43095 -7.82624 -8.32023 -8.44744 -7.31706 -7.6339 -7.80028 -6.85045 
-6.83475 -9.18592 -9.36018 -9.35169 -9.33365 -9.85631 -9.3301 -10.3853 -8.81985 
-1.85473 -2.33057 -0.7489 -0.260014 -1.2387 0 0 0 2.77556e-17 
0 -6.27614 -6.08015 -8.70538 -9.19645 -7.74609 -8.22682 -8.45057 -6.82019 
-6.75852 -6.25342 -7.26143 -6.76065 -7.7465 -11.4031 -11.7353 -11.2281 -10.2016 
-9.70087 -10.2169 -10.7204 -11.2428 -10.6534 -10.8976 -0.42 -0.622007 -1.38778e-17 
6.93889e-18 -1.38778e-17 -0.681073 -0.263322 -0.931384 -1.14844 -0.975779 -1.38692 -1.31932 
-0.870945 -0.984613 -0.634039 -1.97956 -1.39125 -1.78439 -0.894411 -1.60587 -2.02932 
-2.4226 -4.25682 -4.05808 -3.81159 -3.36772 -3.31599 -2.8782 -5.24583 -5.21162 
-5.76215 -5.24455 -4.24657 -4.21855 -4.65897 -4.20876 -1.1772 -1.23884 -1.38778e-17 
-0.0996308 -0.26277 -1.08783 -0.538906 1.38778e-17 0 0 -1.2628 -1.97208 
-2.02016 -1.89698 -1.76792 -1.69262 -1.19782 -1.25568 -1.89948 -1.13852 -1.3617 
-1.05427 -0.587712 5.55112e-17 0 -0.198558 -0.328642 -2.69127 -3.18017 -3.66938 
-4.16203 -5.56682 -5.5537 -5.49958 -5.9752 -4.54414 -4.66091 -5.16383 -5.11204 
-6.40393 -6.38522 -5.93941 -8.30173 -7.79604 -8.81099 -8.2997 -8.30575 -8.80749 
-6.80692 -7.29612 -6.79992 -7.28815 -7.53066 -7.78401 -6.42019 -6.55385 -9.20398 
-10.3805 -9.33116 -9.86905 -1.72317 -2.20605 -0.640526 2.77556e-17 -1.38778e-17 -0.13378 
-1.15253 -5.75186 -5.73983 -8.70609 -8.91542 -9.20107 -8.22725 -8.22779 -6.24896 
-7.26238 -6.7646 -6.24982 -7.74714 -8.02679 -11.4076 -10.9022 -11.4178 -11.7449 
-9.40764 -9.71009 -9.94895 -10.226 -10.7395 -10.5723 -11.2619 -11.3485 -11.7691 
-10.7441 -10.3851 -10.4151 -10.9218 -1.38778e-17 -0.224895 -0.304253 -0.246035 0 
2.77556e-17 -0.446243 -2.77556e-17 -0.692565 -1.13594 -0.584258 -0.738486 -0.444178 -0.498796 
-0.170206 -0.421327 6.93889e-18 6.93889e-18 -0.236559 -1.33295 -1.23889 -1.14988 -0.811452 
-1.52355 -1.93714 -2.36279 -3.7664 -3.75398 -3.79762 -3.27372 -2.82114 -2.77515 
-5.21856 -5.4405 -4.69671 -5.21256 -4.19625 -3.9213 -0.714145 0 2.77556e-17 
-0.425611 -1.33282 -1.48064 -1.6463 -1.81156 -1.37262 -1.39839 -1.5651 -1.13602 
-1.19888 -0.694668 -0.745258 -0.760577 -0.943948 -1.52691 -1.04604 -0.392884 -1.38778e-17 
-1.38778e-17 -1.38778e-17 0 2.77556e-17 -1.38778e-17 -2.62815 -3.12209 -3.6142 -4.10987 
-5.06615 -5.00836 -5.46578 -4.61594 -4.67182 -4.6179 -4.63875 -5.89487 -6.34348 
-5.85123 -5.44877 -5.79106 -5.39941 -8.29173 -7.78134 -8.81083 -8.30156 -8.95594 
-6.78259 -7.2768 -6.77699 -7.27513 -7.27814 -7.78161 -6.30689 -6.30136 -6.27983 
-9.34304 -9.46378 -9.89917 -1.65045 -2.13766 -1.12041 -0.606276 0 0 
-0.0938293 -1.62191 -5.73513 -5.5948 -5.21122 -8.7084 -9.20701 -8.72112 -8.23029 
-7.27006 -6.25925 -6.77951 -5.73532 -5.87421 -7.74967 -8.24024 -11.4537 -9.71742 
-10.2374 -9.73847 -10.7614 -11.6168 -11.2861 -10.3396 -10.4488 -10.9592 0 
-2.77556e-17 2.77556e-17 -2.77556e-17 0 0 -2.77556e-17 0 -0.270354 -0.243742 
-0.31247 -0.167751 1.38778e-17 -1.38778e-17 2.77556e-17 2.77556e-17 -6.93889e-18 -0.212769 1.38778e-17 
2.77556e-17 0 -0.995994 -0.688846 -0.695735 -1.45217 -1.85095 -1.50948 -2.32745 
-3.2561 -3.71814 -3.22607 -3.70034 -2.75892 -2.27041 -4.19267 -4.19128 -4.6998 
-3.69797 -3.98783 -3.6946 -0.867312 -0.544302 2.77556e-17 0 -1.38894 -1.43031 
-1.22682 -0.886189 -0.771016 -0.906745 -1.05532 -0.7026 -0.601128 -0.251836 -0.19415 
-0.287677 -0.734524 -0.334225 -0.157104 -0.447029 -1.38778e-17 -2.77556e-17 -2.60906 -3.10243 
-3.59571 -4.09247 -4.24209 -4.51539 -4.96081 -4.2182 -4.18131 -4.12586 -4.07229 
-5.83683 -5.35601 -4.90641 -5.39124 -8.81384 -7.91983 -8.32027 -8.83533 -6.77253 
-6.27192 -6.95348 -7.28085 -7.79019 -5.81366 -5.80001 -6.22652 -5.78535 -9.34946 
-9.3792 -9.92495 -2.1162 -1.14619 -1.64389 -0.640878 0 -0.125864 -2.13402 
-5.21457 -5.7443 -4.97219 -8.60654 -9.22696 -8.72418 -7.28209 -6.79161 -7.54548 
-6.26914 -5.7476 -5.76545 -7.76583 -8.74011 -8.23528 -7.77094 -11.484 -10.9837 
-9.63692 -10.2585 -9.74404 -10.0491 -10.7801 -10.2678 -11.4973 -11.1495 -11.1398 
-10.4539 -10.4756 -2.77556e-17 -1.38778e-17 0 1.38778e-17 -1.38778e-17 1.38778e-17 1.38778e-17 
1.38778e-17 -1.38778e-17 -1.38778e-17 -2.77556e-17 1.38778e-17 -0.292636 -0.0380513 0 -2.77556e-17 
-0.858137 -0.50523 -0.365172 -1.34515 -1.83512 -1.27085 -1.76466 -1.95856 -3.21925 
-2.72576 -2.72009 -3.20554 -2.26149 -2.22619 -4.19265 -4.70436 -3.20137 -3.69584 
-4.20353 -3.70412 -3.19777 -1.00587 -0.600596 -2.77556e-17 -0.261274 -1.15519 -1.10494 
-0.38018 -0.421182 -0.690329 -0.302661 -0.520174 0 0 0 -0.169714 
0 0 0 -2.77556e-17 0 -0.110999 2.77556e-17 0 0 
0 1.38778e-17 6.93889e-18 -2.62788 -3.12166 -3.61464 -3.81458 -3.74431 -4.46175 
-4.46171 -3.96488 -4.01943 -4.46177 -4.41313 -3.68354 -3.62925 -3.57509 -3.52336 
-5.33645 -4.89027 -4.86097 -7.79392 -7.81666 -8.39139 -8.3502 -8.86472 -6.77472 
-6.27221 -5.92154 -5.77945 -7.29167 -6.79168 -6.77646 -5.31904 -5.30054 -5.28958 
-5.28084 -9.40669 -9.9526 -1.23017 -1.71994 -0.737128 1.38778e-17 -1.38778e-17 0 
-0.234992 -2.20025 -2.68969 -5.21788 -4.71159 -9.24628 -6.7978 -7.28661 -6.29008 
-7.79056 -7.30641 -6.22286 -5.23391 -5.74501 -5.24904 -8.75742 -8.64335 -8.28061 
-11.1878 -11.0145 -9.75852 -9.77071 -10.766 -10.4395 -10.2731 -10.8472 -10.7821 
-10.7948 -10.8076 -10.1968 -10.5039 -9.95958 0 1.38778e-17 3.46945e-18 0 
-6.93889e-18 -0.829843 -0.335785 1.38778e-17 0 -0.776655 -1.24893 -1.72096 -1.83544 
-1.22342 -2.70502 -2.22174 -2.20845 -2.70171 -4.38503 -2.69747 -3.19998 -4.20808 
-3.20705 -3.64101 -2.69927 -0.642662 -0.335937 0 0 -2.77556e-17 0 
-0.666126 -0.679984 -0.326747 -2.77556e-17 6.93889e-18 0 0 -0.0995029 -0.21157 
1.04083e-17 -6.93889e-18 0 0 -2.77556e-17 0 1.38778e-17 0 -3.17974 
-3.38498 -3.31243 -3.50311 -3.46832 -3.91367 -4.39031 -3.1843 -3.12822 -3.3655 
-3.359 -3.02754 -4.83716 -4.3696 -7.31751 -7.90247 -8.37401 -8.89125 -6.27737 
-5.77356 -5.78044 -5.27607 -6.80138 -6.41421 -4.82403 -4.80195 -4.79419 -4.7828 
-4.77934 -9.43077 -1.34979 -1.8268 -0.865361 0 -0.2107 -0.372983 -2.30088 
-2.78377 -4.87265 -4.7283 -4.2214 -9.26344 -8.76259 -9.07725 -6.80642 -6.30064 
-7.8032 -7.31376 -6.81099 -5.79122 -5.38806 -5.26543 -4.73539 -4.74765 -8.77625 
-8.29466 -7.80617 -8.03127 -10.9429 -9.26946 -9.48168 -10.2751 -9.76873 -10.772 
-10.4913 -10.4506 -10.7004 -10.5231 -9.97828 -9.9966 -0.281121 -1.38778e-17 -0.748729 
-0.251225 -1.70227 -1.21024 -1.56565 -0.726096 -2.20436 -2.19772 -2.1986 -2.70757 
-3.22618 -3.74486 -3.23015 -2.20759 -0.439295 4.16334e-17 0 -0.562508 -0.123197 
3.46945e-18 0 -1.56125e-17 0 0 0 0 -2.96075 -2.88594 
-2.81715 -3.25314 -3.41547 -3.3957 -3.89248 -3.87814 -2.69004 -2.63294 -2.74086 
-3.07965 -2.97153 -2.9179 -2.52795 -4.33901 -3.84164 -6.81645 -7.34285 -7.8729 