# vtk DataFile Version 4.2
3D Slicer output. SPACE=LPS
ASCII
DATASET POLYDATA
POINTS 7201 float
19.0767 14.8995 1.07211 19.0961 14.8466 1.08942 19.0789 14.8293 1.07954 
19.0489 14.9694 1.06371 19.1129 14.8045 1.09218 19.1292 14.6477 1.08724 
18.9883 14.7385 1.10552 18.9115 14.8621 1.11009 18.9667 14.9513 1.06238 
19.0411 14.997 1.05294 19.1578 14.6713 1.10127 19.1854 14.5675 1.11094 
19.1181 14.4971 1.1107 19.0204 14.6077 1.12003 18.8839 14.6835 1.18099 
18.8542 14.7884 1.16544 18.8452 15.0006 1.1092 18.7759 14.8944 1.18873 
18.9989 15.025 1.03871 18.9253 15.073 1.05226 19.0255 15.0452 1.04529 
19.2004 14.5074 1.12382 19.0115 14.5027 1.15232 19.1793 14.3566 1.1453 
19.0548 14.3988 1.16292 18.9053 14.5637 1.20485 18.7362 14.7731 1.25982 
18.7778 14.6308 1.27674 18.8519 15.2051 1.07435 18.731 15.0753 1.17799 
18.6545 14.9275 1.27715 19.0172 15.0869 1.04466 18.9941 15.1009 1.03988 
18.9497 15.157 1.0521 18.9339 15.1987 1.0576 19.2123 14.4668 1.13277 
18.922 14.4432 1.23388 19.2449 14.358 1.17446 19.2435 14.2186 1.19655 
19.1067 14.2767 1.18303 18.9897 14.3345 1.22227 18.8015 14.5166 1.29951 
18.6528 14.7016 1.34581 18.5834 14.844 1.35357 18.6937 14.5837 1.35587 
18.8645 15.444 1.03385 18.769 15.3092 1.09895 18.9167 15.3137 1.05757 
18.9001 15.4048 1.04154 18.6162 15.0709 1.27265 18.6761 15.2087 1.19238 
18.5278 15.0003 1.35484 19.0067 15.1152 1.04852 18.9825 15.1347 1.04417 
18.9061 14.356 1.27788 18.8259 14.4119 1.32071 19.2653 14.278 1.19667 
19.3042 14.1329 1.23924 19.1665 14.152 1.21533 19.2777 14.221 1.2174 
19.047 14.2357 1.22226 18.9662 14.2586 1.26756 18.7242 14.479 1.37192 
18.5871 14.6506 1.40759 18.5214 14.7745 1.41482 18.4199 14.9393 1.44126 
18.6236 14.5473 1.41787 18.8922 15.4802 1.03476 18.7978 15.5208 1.0399 
18.8513 15.6007 1.01972 18.8736 15.5435 1.0211 18.7095 15.388 1.12366 
18.6008 15.1815 1.262 18.524 15.1453 1.32732 18.6241 15.3008 1.21525 
18.3993 15.1435 1.41235 18.8785 14.2972 1.3229 18.7763 14.3621 1.37656 
19.3124 14.099 1.25428 19.2424 14.0102 1.26013 19.0725 14.1305 1.25259 
18.9687 14.1564 1.30628 18.662 14.4379 1.42944 18.5191 14.6035 1.46843 
18.4633 14.7092 1.47139 18.3975 14.8236 1.48277 18.2803 14.9212 1.53648 
18.2792 15.0752 1.5041 18.5505 14.5019 1.48165 18.7181 15.5506 1.08062 
18.8053 15.6906 1.01764 18.8257 15.6795 1.01503 18.6286 15.4414 1.17467 
18.5518 15.2523 1.28479 18.4637 15.2817 1.34127 18.5398 15.3691 1.26539 
18.357 15.3384 1.40121 18.2766 15.2418 1.47282 18.8562 14.2237 1.36567 
18.7285 14.308 1.42691 19.3191 14.0783 1.25999 19.3542 13.9799 1.30063 
19.3277 13.8398 1.29786 19.1053 13.9758 1.29589 18.9477 14.0722 1.35237 
18.5961 14.3822 1.49016 18.4583 14.5488 1.5262 18.3974 14.6401 1.53635 
18.3207 14.7718 1.54793 18.1662 14.869 1.62657 18.1714 15.0333 1.58439 
18.1901 15.174 1.54313 18.4689 14.4299 1.5562 18.7013 15.6918 1.07148 
18.6107 15.5702 1.15483 18.7842 15.813 1.02914 18.8173 15.7116 1.01918 
18.7915 15.8141 1.02904 18.5223 15.4955 1.24454 18.4353 15.4323 1.32717 
18.2674 15.427 1.44242 18.3411 15.5275 1.37384 18.1969 15.3345 1.50761 
18.8127 14.1696 1.41393 18.6727 14.2564 1.47939 19.3915 13.8888 1.31791 
19.4208 13.664 1.31497 19.4405 13.8009 1.32992 19.1871 13.7697 1.3298 
19.0188 13.9216 1.3617 18.8887 14.0371 1.4085 18.5538 14.3014 1.54193 
18.3642 14.5332 1.59088 18.2487 14.6677 1.62603 18.037 14.8982 1.70724 
18.0706 15.016 1.65751 18.0984 14.7552 1.70181 18.1008 15.1442 1.61009 
18.1339 15.262 1.5646 18.3604 14.3992 1.63327 18.4632 14.2925 1.60175 
18.6845 15.856 1.08321 18.5797 15.7147 1.15573 18.5088 15.607 1.22655 
18.7666 15.9321 1.06378 18.7864 15.8364 1.03341 18.425 15.5885 1.29923 
18.2631 15.6658 1.40538 18.191 15.5453 1.47345 18.3606 15.7986 1.32083 
18.1074 15.4461 1.55139 18.7531 14.1368 1.46584 18.6375 14.2065 1.51826 
19.4905 13.7186 1.33989 19.3257 13.5813 1.33407 19.5352 13.5016 1.33115 
19.5334 13.6348 1.3453 19.148 13.6532 1.39599 19.0385 13.7936 1.40743 
18.9353 13.9169 1.42792 18.8213 14.0195 1.46556 18.5715 14.1922 1.56629 
18.2599 14.5075 1.66519 18.1505 14.6054 1.70864 17.9818 14.8055 1.76726 
17.9889 15.0048 1.717 17.9434 14.9247 1.76594 17.9974 15.142 1.68357 
18.0325 14.6745 1.76786 18.0551 15.2806 1.61696 18.3703 14.2631 1.67057 
18.2368 14.3836 1.71846 18.5002 14.1571 1.62498 18.684 16.0634 1.0993 
18.5649 15.9247 1.15811 18.7494 16.0051 1.07468 18.4656 15.7558 1.24034 
18.2683 16.0132 1.37118 18.1822 15.8127 1.44329 18.1054 15.6976 1.51421 
18.4703 16.0189 1.22792 18.4005 16.1528 1.28468 18.0016 15.4496 1.62827 
18.0149 15.6437 1.59176 18.6936 14.1053 1.51803 19.4737 13.4119 1.34982 
19.2822 13.495 1.39076 19.66 13.354 1.37386 19.6347 13.4883 1.36772 
19.5896 13.5663 1.35451 19.1255 13.5616 1.46251 19.0262 13.6906 1.47099 
18.9421 13.8107 1.47588 18.8669 13.9155 1.48091 18.7646 13.9769 1.52394 
18.6347 14.0601 1.57547 18.1718 14.4961 1.72651 18.0868 14.5621 1.76382 
17.92 14.7306 1.82794 17.8836 14.8605 1.82105 17.9184 15.0561 1.75651 
17.8716 14.9741 1.80546 17.9728 15.3016 1.67218 17.9058 15.2292 1.73298 
17.9878 14.5973 1.8199 18.4086 14.112 1.70285 18.2541 14.2386 1.75654 
18.1045 14.3541 1.8176 18.0946 14.4747 1.78517 18.566 14.0205 1.63701 
18.7312 16.0948 1.09974 18.5929 16.1795 1.15203 18.6846 16.2347 1.1208 
18.6953 16.1944 1.11123 18.3403 16.3401 1.33185 18.1544 16.105 1.44285 
18.2213 16.3212 1.39913 18.0814 15.9505 1.50519 17.9977 15.8584 1.5797 
18.5435 16.3146 1.21538 18.4931 16.4538 1.27899 17.9099 15.4221 1.69819 
17.9193 15.6133 1.66604 17.9107 15.8009 1.6525 19.6099 13.2571 1.39196 
19.4366 13.3281 1.39744 19.261 13.4055 1.45331 19.691 13.4232 1.38705 
19.7409 13.3625 1.42212 19.7612 13.2302 1.45215 19.1019 13.4859 1.52093 
19.0191 13.6079 1.51956 18.9321 13.7083 1.53353 18.8424 13.8389 1.53383 
18.709 13.9027 1.59389 17.8139 14.8125 1.87908 17.865 14.6571 1.88483 
17.7947 14.9962 1.85315 17.8414 15.1274 1.79688 17.8303 15.3445 1.76625 
17.9672 14.5048 1.8614 18.5138 13.9872 1.68601 18.4248 13.9886 1.74516 
18.2696 14.0832 1.8075 18.1455 14.2086 1.84122 18.0515 14.2877 1.87648 
17.9589 14.4017 1.8994 18.6131 13.9165 1.6511 18.6857 16.3353 1.15262 
18.6788 16.3812 1.17114 18.2955 16.5447 1.37733 18.4254 16.5868 1.33018 
18.1133 16.3673 1.47229 18.0368 16.2028 1.52734 18.1916 16.5514 1.43569 
17.955 16.0789 1.59534 17.8756 15.984 1.66229 18.6431 16.498 1.27018 
18.6361 16.5359 1.28633 18.63 16.6446 1.31954 18.5952 16.7091 1.34299 
17.8308 15.5579 1.73381 17.8274 15.7481 1.7151 17.8196 15.8997 1.70845 
19.5553 13.1985 1.41936 19.6841 13.1333 1.45395 19.4261 13.2351 1.45072 
19.2596 13.306 1.51285 19.7821 13.299 1.45574 19.8196 13.2566 1.50806 
19.8289 13.0994 1.55222 19.0754 13.4152 1.57948 18.9633 13.5853 1.57003 
18.8243 13.7221 1.59968 18.6857 13.8072 1.65249 17.7163 14.9355 1.91635 
17.7341 14.7485 1.94793 17.8173 14.5492 1.94709 17.7597 15.2407 1.83161 
17.692 15.1399 1.89311 17.748 15.4804 1.79988 18.56 13.8903 1.69883 
18.4924 13.8725 1.75285 18.3712 13.9169 1.81313 18.2378 13.9384 1.88955 
18.1393 14.0764 1.896 18.0566 14.1872 1.90911 17.9653 14.2974 1.93031 
17.8535 14.4026 1.9675 18.6891 16.3743 1.1696 18.6864 16.3857 1.17745 
18.6784 16.4108 1.19068 18.3798 16.7205 1.3768 18.2793 16.7153 1.41838 
18.4897 16.7516 1.35265 18.0911 16.5649 1.5033 17.992 16.4221 1.56469 
17.8984 16.2928 1.6335 18.1907 16.7106 1.46512 17.8195 16.168 1.69317 
17.7649 16.0313 1.73595 18.6194 16.7186 1.36548 18.5798 16.8675 1.38735 
18.6185 16.7538 1.36707 18.5893 16.87 1.39212 17.7482 15.6875 1.77185 
17.7471 15.8687 1.75654 19.5732 13.1194 1.45888 19.6912 13.0216 1.50888 
19.4926 13.0879 1.51044 19.2841 13.1818 1.57475 19.8464 13.1646 1.55653 
19.8284 12.9158 1.58393 19.8618 13.0658 1.58935 19.8602 13.1232 1.58878 
19.0532 13.3171 1.65344 18.9019 13.5474 1.63118 18.7538 13.6682 1.67213 
18.6178 13.7714 1.71529 17.6386 14.8986 1.97345 17.6243 15.0639 1.94931 
17.6291 14.7635 2.01148 17.675 14.6243 2.01864 17.7251 14.4528 2.03485 
17.6493 15.4051 1.87671 17.5911 15.2457 1.93865 17.6631 15.6518 1.83213 
18.5121 13.7678 1.78851 18.3763 13.7794 1.87175 18.1148 13.9389 1.96732 
18.2336 13.7884 1.95732 18.0376 14.072 1.96447 17.9646 14.1946 1.96742 
17.8905 14.3006 1.97784 17.8116 14.3454 2.0135 18.3637 16.8242 1.41569 
18.4627 16.8507 1.39583 18.2928 16.8318 1.44938 18.1053 16.7064 1.51976 
17.9826 16.589 1.58734 17.8412 16.4794 1.68534 17.7587 16.3328 1.73717 
18.2107 16.8069 1.48278 17.7042 16.1791 1.77203 17.6784 15.9911 1.79291 
18.5289 16.958 1.43327 18.5677 16.9694 1.43927 18.5873 16.8831 1.39537 
17.6845 15.8133 1.79961 19.6936 12.8896 1.55204 19.5333 12.9331 1.57492 
19.3557 13.009 1.63557 19.8293 12.8316 1.59885 19.8502 12.9377 1.60083 
19.8476 12.9008 1.60126 19.1793 13.0703 1.71568 18.8197 13.5168 1.70253 
18.8868 13.3509 1.74596 18.6651 13.641 1.74569 17.5504 15.0195 2.00322 
17.5593 14.8784 2.02639 17.5447 15.1522 1.98324 17.5766 14.6724 2.06667 
17.5585 14.7748 2.05137 17.5947 14.5276 2.09372 17.7638 14.2896 2.06315 
17.6451 14.3549 2.11371 17.5435 15.6837 1.91099 17.5249 15.4374 1.95096 
17.4873 15.2797 1.99798 17.6098 15.8808 1.84677 18.5408 13.6326 1.83311 
18.3922 13.6399 1.92573 17.9871 13.9723 2.03516 18.0727 13.8108 2.04809 
18.2458 13.6548 2.01082 17.9313 14.1026 2.02233 17.8672 14.2305 2.01787 
18.4054 16.9138 1.44166 18.3015 16.9065 1.4791 18.1668 16.8343 1.52053 
18.0114 16.7353 1.5964 17.8711 16.6285 1.68319 17.7287 16.5663 1.78532 
17.6826 16.4312 1.79995 17.6566 16.2961 1.80752 17.6129 16.1245 1.83561 
18.4348 17.0129 1.47957 18.551 17.0404 1.4731 18.5565 17.0173 1.45982 
19.7117 12.7671 1.59169 19.81 12.7732 1.60382 19.6131 12.7681 1.62784 
19.4919 12.7967 1.68058 19.4142 12.7947 1.73398 19.2312 12.8948 1.79404 
18.9596 13.1657 1.8062 18.7002 13.5072 1.78794 18.7352 13.3649 1.8413 
17.4711 14.99 2.05687 17.4668 15.1351 2.0341 17.4862 14.8526 2.07589 
17.4839 14.613 2.13392 17.5082 14.738 2.09003 17.5195 14.4143 2.16599 
17.8338 14.1619 2.06326 17.7358 14.1876 2.11384 17.6019 14.236 2.17341 
17.4125 15.826 1.98897 17.5067 16.0356 1.91671 17.4475 15.5998 1.98057 
[...]
POINT_DATA 7201
SCALARS scalars float
LOOKUP_TABLE default
-1.73472e-18 0 -0.0267811 0 0 -0.0382646 -0.141226 -0.181426 -0.0932129 
0 3.46945e-18 3.46945e-18 -0.0896462 -0.148376 -0.272299 -0.270252 -0.205763 -0.325239 
-0.0366132 -0.0944632 0 0 -0.187039 -0.0686551 -0.171689 -0.285663 -0.417498 
-0.415618 -0.13385 -0.317317 -0.464225 0 -0.0243418 6.93889e-18 -6.93889e-18 -3.46945e-18 
-0.30226 3.46945e-18 -0.0385346 -0.1529 -0.256366 -0.423639 -0.543611 -0.5798 -0.53295 
-0.0451054 -0.188817 6.93889e-18 0 -0.46262 -0.338709 -0.594554 0 0 
-0.346218 -0.42652 0 1.73472e-18 -0.128344 0 -0.222702 -0.30414 -0.529404 
-0.638942 -0.676462 -0.742093 -0.628782 3.46945e-18 -0.0796765 -3.46945e-18 0 -0.230038 
-0.44408 -0.550256 -0.370681 -0.697484 -0.396812 -0.501364 6.93889e-18 -0.0980248 -0.226753 
-0.331629 -0.61604 -0.734811 -0.766072 -0.805921 -0.91119 -0.860203 -0.729351 -0.157528 
-0.0168761 1.73472e-18 -0.308559 -0.478999 -0.57318 -0.448297 -0.676397 -0.804519 -0.444443 
-0.573011 0 -6.93889e-18 -0.0828431 -0.241864 -0.381351 -0.709247 -0.823864 -0.866626 
-0.913821 -1.06396 -1.0006 -0.929114 -0.845613 -0.128558 -0.277627 -0.00738969 0 
8.67362e-19 -0.417019 -0.548638 -0.746263 -0.622815 -0.862783 -0.510995 -0.65243 0 
-0.0954686 6.93889e-18 -0.239825 -0.351765 -0.461476 -0.780378 -0.938924 -1.03345 -1.20671 
-1.12582 -1.18271 -1.04463 -0.963201 -0.980856 -0.888918 -0.102519 -0.263465 -0.387415 
6.93889e-18 -8.67362e-19 -0.498617 -0.662804 -0.790952 -0.50196 -0.927384 -0.590824 -0.707374 
0 -0.20846 -0.115981 0 -0.330907 -0.38249 -0.450384 -0.54778 -0.789306 
-1.06905 -1.16917 -1.30376 -1.22681 -1.30868 -1.16811 -1.28721 -1.0497 -1.00623 
-1.13141 -0.883515 -0.0529521 -0.218047 3.46945e-18 -0.387765 -0.539461 -0.704869 -0.837294 
-0.302524 -0.348024 -1.05222 -0.966479 -0.670962 -0.191176 -0.286645 -0.119973 -6.93889e-18 
0 -0.402896 -0.445578 -0.48732 -0.532449 -0.630202 -0.755069 -1.17679 -1.25828 
-1.40194 -1.40137 -1.29271 -1.37684 -1.13971 -1.24563 -1.36514 -1.00594 -1.15166 
-1.2982 -1.27531 -0.849342 6.93889e-18 -0.122191 6.93889e-18 -3.46945e-18 -0.364944 -0.640342 
-0.50024 -0.776867 -0.910074 -0.150285 -0.177834 -1.17066 -1.0911 -1.03494 -0.18045 
-0.253842 -0.354605 -6.93889e-18 0 -0.0910923 -0.470517 -0.496269 -0.54618 -0.592263 
-0.723048 -1.49988 -1.4915 -1.45941 -1.35848 -1.29241 -1.41835 -0.922606 -1.02805 
-1.18079 -1.29063 -1.38071 -1.45862 -0.830693 0 -0.00998922 -0.362376 -0.218508 
-0.608767 -0.747263 -0.472171 -0.884971 -1.01195 0 6.93889e-18 -3.46945e-18 -0.0376091 
-1.21376 -1.15012 -1.10655 -0.239119 -0.180276 -0.309459 -0.414375 0 6.93889e-18 
-0.050483 -0.54054 -0.571081 -0.66383 -0.788367 -1.57137 -1.61556 -1.58239 -1.41248 
-1.5267 -1.33734 -0.903622 -0.990837 -1.11763 -1.26704 -1.33779 -1.40341 -1.48078 
-1.58316 1.73472e-18 0 0 -0.23684 -0.340996 -0.120465 -0.579764 -0.732836 
-0.882039 -0.435336 -1.01457 -1.12328 0 -0.0110321 0 0 -1.26119 
-1.19887 -0.263361 -0.18319 -0.337787 -0.467066 0 -0.0279147 0 0 
-0.62506 -0.660755 -0.770602 -0.883636 -1.6737 -1.63103 -1.73242 -1.72603 -1.72013 
-1.47858 -1.60293 -1.37137 -1.01007 -1.16455 -1.41122 -1.3272 -1.46001 -1.51103 
-1.56859 -1.64921 -0.231964 -0.128002 -0.30239 -0.528933 -0.696547 -0.891363 -1.03129 
-0.392776 -1.14267 -1.23419 -0.041032 -3.46945e-18 0 -1.28821 -0.150596 -0.303822 
-0.48906 1.73472e-18 3.46945e-18 0 -0.646354 -0.77091 -0.78893 -0.887167 -1.73072 
-1.77105 -1.68945 -1.82371 -1.80887 -1.84912 -1.72157 -1.84126 -1.49838 -1.60768 
-1.70783 -1.35127 -1.03638 -1.20562 -1.55054 -1.50609 -1.36842 -1.57705 -1.61633 
-0.171945 -0.277751 -0.433147 -0.626003 -0.814176 -0.996075 -1.0886 -1.15949 -1.26521 
-0.12058 0 1.73472e-18 -0.107053 0 -0.197432 -0.325222 -0.410471 -0.61749 
-0.823386 -0.91347 -0.953081 -1.8307 -1.78353 -1.86282 -1.94724 -1.87861 -1.96693 
-1.67509 -1.78201 -1.92172 -1.59901 -1.41965 -1.63671 -1.73232 -1.84583 -1.07814 
-1.24206 -1.67619 -1.67942 -1.51145 -1.67068 -1.3676 -0.298779 -0.488106 -0.772437 
-0.667057 -0.915229 -1.19144 -1.06432 -1.25411 0 -0.0107004 -0.166444 -0.0223811 
3.46945e-18 -0.113801 -0.182719 -0.317047 -0.525352 -0.78399 -0.985518 -1.11584 -1.92365 
-1.87618 -1.95013 -2.07415 -2.04459 -2.08334 -1.81404 -1.96396 -1.56006 -1.74172 
-1.73315 -1.38008 -1.86846 -1.95764 -1.98154 -1.2644 -1.82056 -1.40069 -1.54138 
-1.68202 -1.80024 -0.362875 -0.579724 -0.793732 -0.868414 -0.805575 -0.971016 -1.33474 
-1.19599 -1.06661 0 -0.0650374 0 0 -0.231928 0 0 
-0.0445083 -0.109477 -0.199858 -0.351517 -0.669464 -0.497957 -0.853666 -1.06661 -1.14565 
-2.01378 -2.15666 -2.20486 -2.11098 -2.1061 -2.23425 -1.94842 -1.72381 -1.51937 
-1.91038 -1.91025 -2.02206 -2.06267 -2.11159 -1.28671 -1.41579 -1.51854 -1.68287 
-1.82524 -0.474985 -0.725533 -0.916924 -0.993183 -0.891921 -1.35729 -1.24109 -1.1167 
6.93889e-18 -0.06572 -0.344981 -3.46945e-18 3.46945e-18 3.46945e-18 -0.0585619 -0.258786 -0.165394 
-0.348389 -0.78425 -0.621609 -0.408192 -0.921993 -1.19916 -1.10721 -2.21492 -2.29135 
-2.33457 -2.16743 -2.06808 -2.21452 -2.34522 -1.9285 -1.54063 -1.83276 -2.09226 
-2.0669 -2.12372 -2.16739 -2.22563 -1.35036 -1.46413 -1.63689 -1.79189 -0.622357 
-0.773172 -1.01034 -0.846298 -0.950961 -1.22571 -1.345 -1.11817 0 0 
6.93889e-18 -0.199049 -0.494798 -3.46945e-18 0 -0.0532559 3.46945e-18 -0.263402 -0.170876 
-0.923897 -0.803885 -0.513461 -0.688082 -0.339142 -1.05525 -1.29841 -1.20442 -2.31484 
-2.2518 -2.40743 -2.39225 -2.4441 -1.98295 -2.13421 -2.29357 -2.43534 -1.84431 
-1.45729 -1.67629 -2.02597 -2.22445 -2.17393 -2.22744 -2.36946 -2.28519 -2.31949 
-1.41452 -1.56749 -1.70244 -0.672258 -0.758795 -1.04284 -0.793568 -0.903914 -1.03071 
-1.22374 -1.31462 -1.13 -3.46945e-18 -0.0549251 -0.341973 -0.565076 -3.46945e-18 0 
-0.0441574 -0.232424 -0.978074 -1.09443 -0.862061 -0.64544 -0.506602 -0.800826 -0.383868 
-1.24437 -2.41793 -2.45726 -2.50162 -2.48013 -2.55626 -2.03509 -1.88994 -2.19843 
-2.36451 -2.50632 -1.74277 -1.40094 -1.56997 -1.80042 -2.35533 -2.10108 -2.26673 
-2.3349 -2.36422 -2.6115 -2.52003 -2.38862 -1.51689 -0.689071 -0.719469 -0.841478 
-0.962808 -1.15501 -1.08659 -1.21899 -1.26542 0 -0.173128 0 0 
-0.420106 -0.592376 3.46945e-18 0 0 -0.132211 -0.279646 -1.12059 -1.01572 
-1.28632 -0.925144 -0.631311 -0.755024 -0.503742 -0.936217 -0.870107 -0.359372 -2.53641 
-2.49536 -2.5215 -2.59627 -2.58237 -2.62951 -2.67976 -1.98081 -2.11139 -1.85207 
-2.26434 -2.41648 -2.52537 -1.49861 -1.64881 -1.31326 -1.42576 -1.54758 -1.69572 
-1.93565 -2.40714 -2.58694 -2.22629 -2.45018 -2.72861 -2.82043 -2.58292 -0.593879 
-0.764208 -0.89656 -1.02261 -1.2084 -1.16547 -0.232299 -0.0231728 0 -0.325844 
-0.456298 -6.93889e-18 -0.0297067 -0.200178 -1.15682 -1.03529 -1.33049 -0.588567 -0.703534 
-0.813638 -0.468305 -1.07674 -0.991247 -0.907756 -0.234803 -0.354468 -2.59538 -2.65761 
-2.69436 -2.66173 -2.72861 -2.7781 -1.99777 -2.13939 -1.7928 -2.34655 -2.4782 
-1.51864 -1.6662 -1.30143 -1.43818 -1.59564 -1.67074 -1.79941 -2.15445 -1.99366 
-2.71999 -2.5091 -2.37841 -2.94508 -2.88378 -2.71058 -3.0026 -0.369008 -0.425219 
-0.64462 -0.80889 -0.951009 -1.07728 -1.3055 -1.19915 -0.132151 3.46945e-18 6.93889e-18 
0 -0.251231 0 0 0 -0.0975457 -1.1785 -1.34962 -1.47492 
-0.549376 -0.647959 -0.758678 -0.886749 -0.448063 -1.256 -1.15814 -1.00382 -0.113879 
-0.237799 -0.380304 -2.80045 -2.59865 -2.71017 -2.78882 -2.86122 -1.94749 -2.23568 
-2.11358 -1.80465 -2.43304 -1.65595 -1.42969 -1.58054 -1.73707 -1.74742 -1.8541 
-2.33125 -2.22207 -2.15462 -1.99634 -2.99283 -2.77096 -2.61553 -2.52105 -3.03889 
-3.11538 -2.92058 -3.00097 -3.21681 -0.209697 -0.0997303 -0.457758 -0.301718 -0.18231 
-0.657356 -0.844162 -0.994852 -1.0963 -1.31683 -1.20947 0 -0.0221015 6.93889e-18 
-0.0387877 -1.51666 -1.44462 -1.62801 -0.518099 -0.644279 -0.880444 -0.759051 -1.00099 
-1.35962 -1.27677 -1.12495 0 6.93889e-18 -0.0585589 -0.178352 -0.310847 -0.434183 
-2.58384 -2.68075 -2.77226 -2.85829 -2.92706 -2.0993 -1.9571 -2.26849 -2.23327 
-1.86347 -2.4049 -1.80908 -1.40195 -1.49322 -1.71351 -1.58582 -1.89159 -1.82579 
-2.44073 -2.30843 -2.12854 -2.22307 -2.00761 -3.29193 -3.0181 -2.8439 -2.71385 
-2.61153 -3.10064 -3.1665 -3.24473 -2.98774 -3.04902 -3.33228 -0.010858 -0.0631643 
1.38778e-17 0 6.93889e-18 -0.268592 -0.452212 -0.305763 -0.163073 -0.191095 5.20417e-18 
-0.0381858 3.46945e-18 -0.636958 -0.918567 -1.07998 -1.30387 -1.17079 0 0 
-6.93889e-18 -3.46945e-18 -1.63732 -1.59799 -1.53674 -1.74164 -0.651882 -0.562057 -1.02028 
-0.872264 -0.760126 -1.11009 -1.4455 -1.36542 -1.22592 0 6.93889e-18 0 
-0.0630499 -0.121153 -0.245707 -0.37106 -0.493359 -2.54915 -2.67887 -2.81662 -2.92289 
-2.97658 -2.23837 -2.10578 -2.03237 -2.37777 -1.9753 -1.87661 -1.97168 -1.39034 
-1.46967 -1.83943 -1.73854 -1.63952 -1.52235 -1.93865 -2.38414 -2.53553 -2.27348 
-2.06513 -2.15291 -2.16974 -3.43265 -3.52612 -3.25361 -3.04665 -2.96635 -2.84611 
-2.76171 -2.7063 -3.11549 -3.2128 -3.26194 -3.34207 -3.03733 0 0 
0 0 -0.116156 -0.168437 -0.267464 -0.372069 -0.18934 -0.0665906 0 
0 0 -0.724948 -0.4779 -0.922409 -1.02533 -1.24399 -1.05732 -1.71037 
-1.68475 -1.62027 -1.81564 -0.69513 -0.624334 -1.17164 -0.983167 -1.11797 -0.831327 
-1.50905 -1.29918 -1.4214 0 -6.93889e-18 0 -6.93889e-18 -0.0714006 -0.154597 
-0.306212 -0.444114 -0.565976 -2.53542 -2.70803 -2.83649 -2.9318 -3.00439 -2.37034 
-2.25172 -2.16244 -2.1074 -2.07889 -1.93454 -2.0064 -2.07236 -1.32221 -1.37086 
-1.94612 -1.81686 -1.70004 -1.6518 -1.53997 -1.3685 -2.4829 -2.38671 -2.68131 
-2.61008 -2.23421 -2.06563 -2.04611 -3.41305 -3.51893 -3.65827 -3.44959 -3.21578 
-3.11821 -3.09952 -2.95224 -2.89079 -2.8397 -2.82555 -2.79769 -3.09304 -3.19196 
-3.29824 -3.32551 -0.0448655 -6.93889e-18 3.46945e-18 -0.0893276 -0.20127 -0.13259 -0.291878 
-3.46945e-18 -0.774766 -0.583688 -0.34576 -0.873683 -0.910543 -1.14159 -0.93983 -0.883537 
-1.77772 -1.76372 -1.63934 -1.74673 -1.87007 -0.770224 -0.702947 -1.24351 -0.915594 
-1.04062 -1.09575 -1.20241 -1.5388 -1.3476 -1.43735 6.93889e-18 0 -0.0469591 
-0.186452 -0.418747 -0.314494 -0.529898 -0.635796 -2.49499 -2.64279 -2.79433 -2.93019 
-3.034 -2.38088 -2.28424 -2.22144 -2.16471 -2.15659 -2.06116 -1.95848 -2.12311 
-1.21625 -1.17386 -1.84585 -1.93509 -1.74336 -1.53991 -1.6121 -1.35468 -1.11309 
-2.63694 -2.5521 -2.5517 -2.45999 -2.85454 -2.76952 -2.76002 -2.0358 -2.38889 
-1.85388 -3.40594 -3.49253 -3.61216 -3.73715 -3.79878 -3.57449 -3.31433 -3.22885 
-3.30665 -3.21502 -3.02307 -2.94823 -2.93253 -2.91455 -2.94615 -3.13512 -3.26923 
-3.38159 3.46945e-18 0 -3.46945e-18 -0.0317844 1.73472e-18 -0.0771003 -0.172282 -0.697672 
-0.497528 -0.17634 -0.317922 -0.782539 -0.754271 -1.02583 -0.750838 -0.805062 -1.85495 
-1.75052 -1.64968 -1.84776 -0.875599 -0.769456 -1.32491 -1.01134 -1.16063 -1.11309 
-1.29329 -1.54066 -1.42273 0 0 0 -0.103917 -0.227381 -0.404157 
-0.503822 -0.311045 -0.622522 -2.62432 -2.48951 -2.76658 -2.89247 -3.01075 -2.38629 
-2.34808 -2.25269 -2.23016 -2.13686 -2.03269 -1.94094 -0.903854 -1.79108 -1.73749 
-1.64212 -1.46724 -1.3304 -1.49105 -1.13899 -0.844035 -0.956903 -2.80789 -2.74393 
-2.67312 -2.71875 -2.6753 -2.64446 -2.98289 -3.10611 -2.90115 -2.94787 -2.21574 
-1.89882 -1.68112 -2.63726 -2.4992 -1.64772 -3.45977 -3.57323 -3.67511 -3.78675 
-3.86684 -3.87079 -3.6497 -3.41687 -3.51296 -3.40928 -3.41218 -3.05954 -3.21685 
-3.04883 -3.05133 -3.10316 -3.04932 -3.18408 -3.27923 -3.35935 0 -3.46945e-18 
0 -0.0508139 -3.46945e-18 -0.623614 -0.443428 -0.0538188 -0.174441 -0.294226 -0.582654 
-0.597185 -0.663559 -1.84703 -1.75194 -1.64959 -1.93592 -0.949728 -1.01593 -0.717522 
-0.869768 -1.12519 -1.24584 -1.39553 -1.5198 6.93889e-18 -0.0663207 -0.198592 -0.459875 
-0.378772 -0.577214 -0.297372 -2.59569 -2.69886 -2.7744 -2.48252 -2.90469 -2.46828 
-2.37385 -2.325 -2.21983 -2.11497 -2.06707 -2.00372 -0.714132 -1.63909 -1.62722 
-1.52823 -1.30923 -1.11783 -1.32211 -0.922442 -0.749685 -0.621484 -2.94435 -2.84935 
-2.87779 -2.8565 -2.82517 -3.22784 -3.0916 -3.29386 -3.41165 -3.12467 -2.35746 
-2.11974 -1.56709 -1.80159 -1.47194 -1.37691 -2.74179 -2.58545 -1.4578 -3.41035 
-3.52138 -3.67148 -3.83701 -3.93045 -3.99666 -3.7233 -3.90571 -3.58857 -3.64193 
-3.41085 -3.21124 -3.23094 -2.92033 -3.0829 -3.2159 -3.3192 -3.46945e-18 3.46945e-18 
-0.381616 3.46945e-18 -0.0481792 -6.93889e-18 -0.152631 -0.425097 -0.534819 -1.93825 -1.8436 
-1.75859 -1.7268 -1.61549 -2.02064 -1.10188 -1.02896 -0.669971 -0.786451 -0.929614 
-1.23716 -1.36292 -1.50148 0 -6.93889e-18 -0.18508 -0.0630485 -0.390546 -0.484419 
-0.581334 -0.30653 -2.58501 -2.69293 -2.78328 -2.812 -2.58593 -2.54556 -2.48862 
-2.40089 -2.29458 -2.18193 -2.05273 -1.48243 -1.09948 -0.899269 -1.25861 -1.05638 
-0.66823 -0.484529 -0.414663 -3.06875 -3.05179 -3.0139 -2.94326 -3.41607 -3.27644 
-3.53332 -3.415 -3.51113 -3.43598 -3.25991 -2.35677 -2.19625 -2.01731 -1.43953 
-1.23671 -1.65023 -1.86759 -1.26735 -1.14159 -2.82879 -2.71137 -2.5225 -3.3417 
-3.40926 -3.56184 -3.71697 -3.87531 -4.00106 -4.08596 -4.05005 -3.82896 -3.87786 
-3.77506 -3.60911 -3.40971 -2.90815 -2.9977 -3.13463 -3.2605 -0.175273 6.93889e-18 
-3.46945e-18 3.46945e-18 -6.93889e-18 -1.04083e-17 -0.36937 -0.231253 -1.94068 -1.83651 -1.82019 
-1.73036 -1.63889 -1.19436 -1.07201 -0.695667 -0.83021 -0.964337 -1.32061 -1.42869 
-1.57388 -6.93889e-18 -0.206678 -6.93889e-18 -0.0861076 -0.406223 -0.479284 -0.575968 -0.352891 
-2.67027 -2.7795 -2.89848 -2.89117 -2.71043 -2.6582 -2.58396 -2.47624 -2.3677 
-2.27839 -2.16416 -2.05905 -0.904269 -0.710433 -1.00127 -0.801674 -0.419953 -0.498853 
-0.264966 -0.272014 -0.266308 -3.22149 -3.18364 -3.11549 -2.98874 -3.35073 -3.39439 
-3.60604 -3.59696 -3.39699 -3.24483 -3.20044 -3.32457 -2.35392 -2.22444 -2.10092 
-1.99247 -1.04692 -1.29537 -0.938668 -1.75784 -1.58587 -1.93313 -1.84594 -2.86491 
-2.74971 -2.61061 -2.46908 -3.26538 -3.2842 -3.43158 -3.58127 -3.72263 -3.86493 
-4.03249 -4.21754 -4.21757 -4.04072 -3.90103 -3.79913 -3.74693 -3.00448 -3.14166 
-0.0552402 -6.93889e-18 6.93889e-18 -0.115293 -1.95485 -1.87343 -1.77744 -1.7103 -1.20386 
-1.32738 -1.09014 -0.745891 -0.881607 -1.00456 -1.45725 -1.58319 -1.67568 -0.239921 
-6.93889e-18 0 -0.0689641 -0.422407 -0.469878 -0.602566 -2.74777 -2.83492 -3.02431 
-3.02844 -2.94756 -2.79758 -2.8202 -2.84777 -2.68514 -2.58106 -2.39477 -2.50217 
-2.30243 -2.18428 -2.12906 -0.561415 -0.703179 -0.312847 -0.257019 -0.35647 -0.110976 
-0.105922 -3.21841 -3.11112 -3.06217 -3.07855 -2.96896 -3.14977 -3.20552 -3.56251 
-3.28289 -3.14262 -2.96302 -2.97074 -2.91176 -3.14757 -2.34631 -2.21739 -2.13359 
-2.03592 -0.685569 -0.778856 -1.37206 -1.04669 -1.67069 -1.76114 -1.50301 -1.97541 
-1.88913 -1.81896 -2.82777 -2.65003 -2.48373 -3.16626 -3.30549 -3.46074 -3.58704 
-3.67228 -3.83346 -4.0005 -4.19225 -4.03959 -4.27309 -3.98004 -3.67714 -3.78116 
0 -3.46945e-18 0 3.46945e-18 0 -2.04653 -1.92057 -1.83224 -1.76497 
-1.33182 -1.21475 -1.12497 -0.771794 -0.911958 -1.11737 -1.45629 -1.55784 -1.67961 
-0.142948 -0.325332 -1.73472e-18 6.93889e-18 3.46945e-18 -0.37567 -0.474682 -0.593428 -2.84302 
-3.09975 -3.07408 -3.12863 -2.96828 -2.89475 -2.89237 -2.97696 -2.94126 -2.79526 
-2.95259 -2.67963 -2.59238 -2.44211 -2.53044 -2.28625 -2.39183 -2.23285 -2.26266 
-2.20721 -0.455368 -0.188075 -0.155725 -0.228203 3.46945e-18 6.93889e-18 -0.020164 3.46945e-18 
0 -2.99896 -2.86075 -2.90668 -3.06407 -2.93502 -2.95461 -2.96237 -3.44646 
-3.24688 -3.12776 -3.04197 -2.89901 -2.77025 -2.75807 -2.71518 -2.61747 -2.7106 
-2.33113 -2.19278 -2.09925 -0.426484 -0.664535 -0.42087 -1.20678 -0.861887 -1.5512 
-1.63907 -1.72129 -1.35964 -2.07268 -1.95622 -1.87721 -1.78478 -2.75863 -2.60189 
-2.46576 -3.19062 -3.29712 -3.40359 -3.51846 -3.52938 -3.68392 -3.84196 -3.95316 
-4.11098 -4.35275 -3.75281 -3.6877 -3.93393 -4.07803 -4.31496 -3.57495 -2.0409 
-2.18133 -1.94251 -1.86102 -1.76417 -1.3329 -1.25113 -0.870211 -1.00909 -0.704854 
-1.21818 -1.32134 -1.41074 -1.62605 -1.48463 0 0 -0.253613 -0.114176 
-0.354281 -0.464489 -0.567259 -3.09146 -3.17964 -3.2303 -3.01235 -2.9608 -3.00134 
-3.12258 -3.06729 -2.87984 -3.01668 -2.77643 -2.68814 -2.59995 -2.50387 -2.33459 
-2.44745 -2.3752 -2.31261 -2.31158 -0.048753 -0.0581809 -0.212914 -0.0634625 -1.73472e-18 
3.46945e-18 0 -2.76755 -2.63836 -2.64817 -2.64993 -2.89851 -2.73537 -3.3602 
-3.18413 -3.08676 -2.9759 -2.83757 -2.69699 -2.60926 -2.58694 -2.49847 -2.39364 
-2.51956 -2.5376 -2.30053 -2.17619 -0.567067 -0.393508 -0.225599 -0.954725 -1.149 
-0.700777 -1.42609 -1.5786 -1.67576 -1.19005 -2.07348 -1.99617 -1.83871 -1.88625 
-1.73713 -2.68422 -2.55498 -2.49575 -2.39399 -3.35485 -3.42482 -3.57238 -3.72733 
-3.90815 -4.00838 -4.19497 -4.48186 -4.37815 -3.47606 -3.58793 -3.45331 -3.73385 
-3.86865 -3.95821 -4.16616 -4.36157 -2.01951 -2.10355 -2.30135 -2.19591 -1.94777 
-1.86572 -1.68591 -1.82312 -1.00739 -0.774014 -0.893706 -1.13472 -0.642478 -1.27246 
-1.38415 -1.53078 -1.30104e-18 -0.228522 0 -0.108877 -0.343344 -0.452136 -0.536138 
-3.18354 -3.12788 -3.27922 -3.06223 -3.12235 -3.19999 -3.30659 -3.2068 -2.9266 
-2.84446 -3.0745 -2.78621 -2.70264 -2.564 -2.46854 -2.407 -2.43496 -6.93889e-18 
6.93889e-18 0 0 -0.08408 0 0 -2.56555 -2.46999 -2.38076 
-2.33237 -2.48078 -2.71447 -2.76298 -3.27325 -3.11103 -3.0289 -2.95741 -2.82867 
-2.66777 -2.52612 -2.4382 -2.33448 -2.24316 -2.37907 -2.24496 -2.39782 -2.28485 
-2.17161 -0.374276 -0.504603 -0.256342 -0.145222 -0.990773 -0.790745 -0.584602 -1.39723 
-1.20446 -1.5474 -1.61252 -1.02494 -2.08876 -2.04939 -1.94137 -1.77968 -1.82657 
-1.67062 -2.60866 -2.49588 -2.46167 -2.39461 -3.41333 -3.51916 -3.64593 -3.77987 
-3.91276 -4.09523 -4.0485 -4.24329 -4.55064 -4.33522 -3.32419 -3.66639 -3.46072 
-3.75501 -3.32971 -4.06729 -3.88836 -4.24311 -4.44466 -2.02546 -2.1094 -2.38067 
-2.26595 -2.18225 -1.93157 -1.81002 -1.57039 -1.70221 -1.91967 -0.977437 -1.07582 
-0.762381 -0.676847 -0.845998 -1.16692 -0.557478 -1.27546 -1.41439 -0.204848 3.46945e-18 
-0.0480827 -0.327235 -0.440056 -3.23428 -3.17874 -3.34793 -3.24488 -3.32038 -3.50291 
-3.45002 -3.34544 -2.97234 -2.87001 -3.16551 -2.8183 -2.76462 -2.65684 -2.52036 
-2.57089 -2.501 0 -0.0350648 -2.28445 -2.14883 -2.13867 -2.0814 -2.22433 
-2.31303 -2.43249 -2.54549 -2.63024 -2.65857 -3.18318 -3.02224 -2.95328 -2.87698 
-2.71092 -2.51743 -2.3483 -2.27715 -2.23052 -2.16606 -2.13878 -2.24774 -2.11929 
-2.35559 -2.26851 -2.15096 -0.407856 -0.266809 -0.21277 -0.0986855 -0.866415 -0.699367 
-0.520924 -1.40761 -1.19813 -1.0376 -1.52966 -0.908532 -2.10642 -2.01413 -1.90252 
-1.70821 -1.76855 -1.58475 -2.56187 -2.45306 -3.48013 -3.55796 -3.68269 -3.84291 
-4.01504 -4.18707 -4.19342 -4.58123 -4.38272 -3.22435 -3.61521 -3.85673 -3.47088 
-3.32444 -3.22163 -4.07113 -4.37 -4.22594 -4.5612 -2.02053 -2.11584 -2.48275 
-2.40337 -2.30565 -2.21132 -1.82426 -1.94272 -1.62084 -1.51038 -1.72641 -2.03173 
-1.07428 -0.898806 -1.00202 -0.584695 -0.680638 -0.77759 -1.16741 -0.436217 -1.38167 
-1.27955 -0.177493 1.73472e-18 -6.93889e-18 -0.0572481 0 -0.311165 -3.29823 -3.43908 
-3.3864 -3.5938 -3.86646 -3.72149 -3.66695 -3.64194 -3.40976 -3.06213 -2.91193 
-3.35703 -2.85386 -2.77777 -2.69331 -2.62062 -2.58896 0 1.73472e-18 1.73472e-18 
-2.12318 -2.00074 -2.01281 -1.92771 -1.90999 -2.03351 -2.10748 -2.15461 -2.20326 
-2.36413 -2.50896 -2.65721 -3.07591 -2.90039 -2.88293 -2.79725 -2.62977 -2.47863 
-2.34833 -2.20145 -2.18312 -2.16353 -2.0791 -2.02178 -1.9966 -2.44033 -2.3896 
-2.36376 -2.2089 -0.353826 -0.333113 -0.188707 -0.0827969 -5.20417e-18 -0.797202 -0.667534 
-0.498926 -1.13835 -1.33657 -1.03246 -0.910941 -1.44149 -0.797585 -2.09921 -1.99445 
-1.88875 -1.61866 -1.78971 -1.65734 -1.48481 -2.58132 -3.61296 -3.61178 -3.72507 
-3.94424 -4.17835 -4.37266 -4.49993 -3.10198 -3.62093 -3.76139 -3.93393 -4.07695 
-3.59365 -3.3528 -3.1915 -3.08076 -4.48055 -4.32949 -4.21013 -4.69418 -2.14241 
-2.60546 -2.53391 -2.33277 -2.47079 -2.24062 -1.93349 -1.83352 -2.04454 -2.07849 
-1.63973 -1.47311 -1.57993 -1.74601 -1.08501 -0.832676 -0.951317 -1.05757 -0.422307 
-0.515993 -0.568569 -0.655387 -0.727937 -1.15876 -0.30938 -1.42269 -1.24036 -1.34941 