# vtk DataFile Version 4.2
3D Slicer output. SPACE=LPS
ASCII
DATASET POLYDATA
POINTS 11894 float
-50.4599 -42.6354 16.9774 -50.6121 -42.6354 17.0242 -50.6121 -42.2585 16.9774 
-50.1121 -42.6354 16.8824 -50.3711 -43.1354 16.9774 -50.1121 -42.1354 16.8039 
-50.6121 -43.1354 17.0485 -51.1121 -42.6354 17.2211 -50.6121 -42.1354 16.9563 
-51.1121 -42.1354 17.1568 -50.1121 -43.1354 16.9071 -49.6121 -42.6354 16.7583 
-49.6121 -43.1354 16.7867 -50.1121 -43.6354 16.8818 -50.4116 -43.6354 16.9774 
-49.6121 -42.1354 16.6802 -50.1121 -41.6354 16.7074 -50.6121 -41.6354 16.8299 
-50.6121 -43.6354 17.0456 -51.1121 -43.6354 17.2265 -51.1121 -43.1354 17.2376 
-51.6121 -42.6354 17.449 -51.6121 -42.1354 17.3683 -51.0188 -41.6354 16.9774 
-51.1121 -41.6354 17.0189 -51.6121 -41.6354 17.2553 -49.1121 -42.6354 16.6583 
-49.1121 -43.1354 16.6855 -49.6121 -43.6354 16.7554 -50.1121 -44.1354 16.8261 
-50.6113 -44.1354 16.9774 -49.1121 -42.1354 16.584 -49.6121 -41.6354 16.5865 
-50.1121 -41.1354 16.5829 -50.6121 -41.1354 16.7105 -49.679 -41.1354 16.4774 
-51.1121 -41.4734 16.9774 -50.6121 -44.1369 16.9774 -51.1121 -44.1354 17.1475 
-51.6121 -44.1354 17.3353 -51.6121 -43.6354 17.4301 -51.6121 -43.1354 17.4705 
-51.8314 -42.1354 17.4774 -52.1121 -43.1354 17.7059 -52.1121 -42.6354 17.6812 
-52.0341 -41.6354 17.4774 -52.1121 -41.4706 17.4774 -51.6121 -41.1354 17.1302 
-51.297 -41.1354 16.9774 -48.6121 -42.6354 16.5844 -48.6121 -43.1354 16.615 
-49.1121 -43.6354 16.6762 -49.6121 -44.1354 16.699 -50.6121 -44.6354 16.8753 
-50.1121 -44.6354 16.7444 -48.6121 -42.1354 16.4954 -49.0593 -41.6354 16.4774 
-49.1121 -41.5833 16.4774 -50.1121 -40.7882 16.4774 -51.1121 -41.1354 16.8902 
-50.6121 -40.6354 16.573 -51.1121 -40.6354 16.7403 -50.2861 -40.6354 16.4774 
-49.1121 -41.1354 16.3696 -49.6121 -40.6354 16.3074 -50.9195 -44.6354 16.9774 
-51.1121 -44.6354 17.0439 -51.6121 -44.6354 17.2232 -51.912 -44.1354 17.4774 
-51.7068 -43.6354 17.4774 -52.1121 -42.1354 17.6183 -52.1121 -43.6354 17.6711 
-52.6121 -43.6354 17.929 -52.6121 -43.1354 17.9673 -52.6121 -42.6354 17.9527 
-52.6121 -42.1354 17.8811 -52.6121 -41.6354 17.7768 -52.2975 -41.1354 17.4774 
-52.1121 -41.1354 17.3797 -51.6121 -40.7098 16.9774 -52.1121 -40.6354 17.1942 
-48.1121 -42.6354 16.4995 -48.1121 -43.1354 16.5324 -48.1121 -42.4829 16.4774 
-48.5106 -42.1354 16.4774 -48.6121 -43.6354 16.62 -48.1121 -43.6354 16.5412 
-49.1121 -44.1354 16.6277 -49.6121 -44.6354 16.6191 -50.6121 -45.1354 16.7256 
-50.1121 -45.1354 16.5828 -49.7244 -45.1354 16.4774 -48.6121 -41.6354 16.3834 
-48.6121 -41.1354 16.2911 -50.1121 -40.6354 16.4265 -50.6121 -40.3442 16.4774 
-51.1121 -40.1354 16.5603 -51.6121 -40.1354 16.7453 -50.8502 -40.1354 16.4774 
-50.1121 -40.1354 16.2691 -49.1121 -40.6354 16.228 -49.6121 -40.1354 16.1516 
-51.1121 -44.8809 16.9774 -51.6121 -45.1354 17.0789 -52.1121 -45.1354 17.3043 
-52.1121 -44.6354 17.4585 -51.3358 -45.1354 16.9774 -52.1121 -44.1354 17.5735 
-52.6121 -44.1354 17.8486 -53.1121 -43.6354 18.2469 -52.812 -44.1354 17.9774 
-53.1121 -43.1354 18.2754 -53.1121 -42.6354 18.2717 -52.7768 -42.1354 17.9774 
-52.9868 -41.6354 17.9774 -53.1121 -41.3776 17.9774 -52.6121 -41.1354 17.6362 
-52.6121 -40.6799 17.4774 -52.1024 -40.1354 16.9774 -52.6121 -40.1354 17.2386 
-47.9628 -42.6354 16.4774 -47.6121 -43.3735 16.4774 -47.7318 -43.1354 16.4774 
-48.1121 -42.1354 16.4105 -47.6121 -42.1354 16.3547 -48.1121 -41.6354 16.2976 
-48.6121 -44.1354 16.5813 -48.1121 -44.1354 16.5188 -47.8287 -44.1354 16.4774 
-47.5813 -43.6354 16.4774 -49.1121 -44.6354 16.5245 -49.6121 -45.1354 16.4476 
-49.1121 -44.7937 16.4774 -50.6121 -45.6354 16.5294 -51.1121 -45.6354 16.7027 
-51.1121 -45.1354 16.8943 -50.4759 -45.6354 16.4774 -50.1121 -45.3679 16.4774 
-49.6121 -45.6354 16.2169 -48.6121 -40.6354 16.1578 -48.1121 -41.1354 16.2141 
-50.6121 -40.1354 16.4048 -51.1121 -39.923 16.4774 -52.1121 -39.6354 16.7284 
-51.6121 -39.6354 16.5147 -51.5072 -39.6354 16.4774 -50.6121 -39.6354 16.22 
-50.1121 -39.6354 16.0762 -49.7128 -39.6354 15.9774 -49.1121 -40.1354 16.0575 
-48.7054 -40.1354 15.9774 -49.6121 -39.6882 15.9774 -49.1121 -39.9318 15.9774 
-51.6121 -45.3955 16.9774 -52.4034 -45.1354 17.4774 -52.6121 -45.4316 17.4774 
-52.1121 -45.6354 17.0962 -51.861 -45.6354 16.9774 -52.6121 -44.6354 17.7324 
-53.4403 -43.6354 18.4774 -53.1121 -44.1354 18.1744 -53.3963 -43.1354 18.4774 
-53.0241 -44.6354 17.9774 -53.4174 -42.6354 18.4774 -53.1121 -42.1354 18.178 
-53.1121 -41.6354 18.049 -53.6121 -41.6354 18.3775 -53.6121 -41.1354 18.2156 
-53.2343 -41.1354 17.9774 -53.1121 -41.1354 17.9026 -53.1121 -40.6354 17.7234 
-53.0725 -40.1354 17.4774 -52.6121 -39.6423 16.9774 -53.1121 -40.0954 17.4774 
-53.1121 -39.6354 17.2219 -52.62 -39.6354 16.9774 -47.6121 -42.6354 16.4332 
-47.6121 -43.1354 16.4636 -47.1121 -43.1354 16.4428 -47.1121 -43.6354 16.469 
-47.1121 -42.1354 16.3095 -47.1121 -42.6354 16.3955 -47.6121 -41.6354 16.2404 
-48.6121 -44.6702 16.4774 -48.5092 -44.6354 16.4774 -48.1121 -44.4226 16.4774 
-47.6121 -44.1354 16.4508 -47.6121 -44.6354 16.3663 -47.1121 -44.1354 16.4343 
-49.1121 -45.1354 16.3581 -48.6121 -45.1354 16.3168 -50.6121 -45.7541 16.4774 
-51.1121 -46.1364 16.4774 -51.6121 -46.1354 16.6385 -51.6121 -45.6354 16.8706 
-51.1108 -46.1354 16.4774 -50.1121 -45.6354 16.345 -50.6121 -46.1354 16.291 
-49.6121 -46.1892 15.9774 -50.1121 -46.1354 16.1272 -49.4903 -46.1354 15.9774 
-49.1121 -45.6354 16.1365 -48.6121 -40.1788 15.9774 -48.1121 -40.6354 16.0762 
-48.1121 -40.3865 15.9774 -47.6121 -41.1354 16.1391 -51.1121 -39.6354 16.3547 
-52.1121 -39.2172 16.4774 -52.2315 -39.1354 16.4774 -52.6121 -39.1354 16.6568 
-51.6121 -39.1354 16.221 -50.6121 -39.1566 15.9774 -50.6544 -39.1354 15.9774 
-51.1121 -39.1354 16.0974 -50.1121 -39.4407 15.9774 -49.6121 -39.1354 15.6683 
-48.1121 -40.1354 15.8718 -48.6121 -39.6354 15.7356 -49.1121 -39.6354 15.8464 
-52.6121 -45.1354 17.5954 -52.6121 -45.6354 17.3829 -52.7611 -45.6354 17.4774 
-53.1121 -45.6354 17.6874 -53.1121 -45.1354 17.8674 -52.1121 -45.9021 16.9774 
-53.1121 -44.8091 17.9774 -53.5418 -44.1354 18.4774 -53.6121 -43.6354 18.6041 
-53.6121 -43.1354 18.6401 -53.6121 -44.3632 18.4774 -53.1121 -44.6354 18.0304 
-53.5622 -42.1354 18.4774 -53.6121 -42.6354 18.6131 -53.6121 -41.9935 18.4774 
-53.7532 -41.6354 18.4774 -53.9942 -41.1354 18.4774 -54.1121 -40.9364 18.4774 
-54.1121 -40.6354 18.3412 -53.545 -40.6354 17.9774 -53.6121 -40.5388 17.9774 
-53.6121 -40.1354 17.7903 -53.5911 -39.6354 17.4774 -53.6121 -39.1354 17.1583 
-53.2473 -39.1354 16.9774 -53.1121 -39.2342 16.9774 -46.8982 -43.6354 16.4774 
-46.6121 -43.1457 16.4774 -46.6121 -42.6354 16.4191 -46.6121 -42.1354 16.3222 
-47.1121 -41.6354 16.2059 -46.6121 -41.6354 16.2145 -48.1121 -44.6354 16.4302 
-48.1121 -45.1354 16.2734 -47.6121 -45.1354 16.2448 -47.1121 -44.6354 16.3545 
-46.6121 -44.1713 16.4774 -48.6121 -45.6354 16.1154 -51.1121 -46.6354 16.2147 
-51.6121 -46.4798 16.4774 -51.7985 -46.6354 16.4774 -52.1121 -46.1354 16.8625 
-50.6121 -46.6354 16.036 -50.4322 -46.6354 15.9774 -50.1121 -46.4506 15.9774 
-49.6121 -46.6354 15.7739 -49.1121 -46.0181 15.9774 -49.1121 -46.1354 15.9284 
-49.1121 -46.6354 15.7146 -48.6121 -46.0002 15.9774 -47.6121 -40.6354 16.0052 
-47.6121 -40.1354 15.8193 -47.1121 -41.1354 16.0932 -47.4079 -40.6354 15.9774 
-52.1121 -39.1354 16.4216 -52.6121 -38.8869 16.4774 -52.6121 -38.6354 16.2472 
-52.1121 -38.6354 16.0166 -53.1121 -39.1354 16.9079 -51.6121 -38.8016 15.9774 
-52.0156 -38.6354 15.9774 -51.1121 -38.9558 15.9774 -50.1121 -39.1354 15.7938 
-50.6121 -38.6354 15.5617 -50.362 -38.6354 15.4774 -49.1121 -39.1354 15.5621 
-49.6121 -38.8843 15.4774 -49.1121 -39.02 15.4774 -48.1121 -39.6354 15.6358 
-48.6121 -39.1717 15.4774 -48.7233 -39.1354 15.4774 -48.1121 -39.3388 15.4774 
-52.6121 -46.1354 17.1552 -53.1121 -46.1354 17.4623 -53.6121 -45.7083 17.9774 
-53.6121 -46.1354 17.7806 -53.2893 -45.1354 17.9774 -52.3083 -46.1354 16.9774 
-53.6121 -45.1354 18.2073 -53.6121 -44.6354 18.3971 -54.1121 -44.1354 18.9411 
-54.1121 -43.9743 18.9774 -54.0513 -43.6354 18.9774 -54.0321 -43.1354 18.9774 
-53.711 -44.6354 18.4774 -54.1121 -44.6354 18.8127 -54.1121 -42.4567 18.9774 
-54.1121 -42.1354 18.9017 -54.0766 -42.6354 18.9774 -54.1121 -41.6354 18.7351 
-54.1121 -41.1354 18.5599 -54.3057 -40.6354 18.4774 -54.6121 -41.2098 18.9774 
-54.6121 -40.6354 18.702 -54.1121 -40.1354 18.0964 -53.9158 -40.1354 17.9774 
-54.1121 -39.9185 17.9774 -54.1121 -39.6354 17.7997 -54.175 -39.1354 17.4774 
-53.6121 -38.8981 16.9774 -53.6121 -38.6354 16.7218 -53.1038 -38.6354 16.4774 
-46.6121 -43.6354 16.4991 -46.1121 -43.1354 16.563 -46.1121 -43.6354 16.5756 
-46.2158 -42.6354 16.4774 -46.1121 -42.5401 16.4774 -46.1121 -42.1354 16.3872 
-46.1121 -41.6354 16.2612 -46.6121 -41.1354 16.0831 -46.1121 -41.1354 16.1085 
-48.1121 -45.6354 16.1198 -47.6121 -45.6354 16.1134 -47.1121 -45.1354 16.244 
-46.6121 -44.6354 16.41 -46.6121 -45.1354 16.2823 -46.1213 -44.6354 16.4774 
-46.1121 -44.1354 16.546 -51.2035 -47.1354 15.9774 -51.6121 -47.1354 16.1301 
-51.1121 -47.1354 15.939 -51.6121 -46.6354 16.395 -50.6121 -46.7493 15.9774 
-52.1121 -46.8972 16.4774 -52.1121 -46.6354 16.6151 -50.1121 -46.6354 15.88 
-50.1121 -47.1354 15.6311 -50.6121 -47.1354 15.7678 -49.6121 -47.208 15.4774 
-49.3689 -47.1354 15.4774 -48.6121 -46.1354 15.9224 -49.1121 -47.1354 15.4505 
-48.6121 -47.1354 15.4457 -48.6121 -46.6354 15.7098 -48.1121 -46.1354 15.945 
-47.1121 -40.1354 15.7739 -47.6121 -39.6354 15.573 -47.1121 -40.7389 15.9774 
-46.6121 -40.8144 15.9774 -47.1121 -40.6354 15.944 -53.1121 -38.2321 15.9774 
-52.6121 -38.4044 15.9774 -52.1121 -38.205 15.4774 -51.6121 -38.6354 15.8276 
-51.1121 -38.6354 15.697 -51.6121 -38.3183 15.4774 -50.1121 -38.7269 15.4774 
-50.6121 -38.5535 15.4774 -51.1121 -38.4336 15.4774 -50.1121 -38.6354 15.3866 
-50.6121 -38.3699 15.2329 -50.4956 -38.391 15.2103 -50.2082 -38.4293 15.1697 
-49.6121 -38.6354 15.2334 -49.1121 -38.6354 15.1192 -47.6121 -39.4642 15.4774 
[...]
POINT_DATA 11894
SCALARS scalars float
LOOKUP_TABLE default
-4.60557 -4.63187 -4.26833 -4.54971 -5.06386 -4.06006 -5.10362 -4.73518 -4.14773 
-4.25555 -5.02295 -4.47249 -4.94758 -5.48426 -5.53543 -3.98255 -3.56648 -3.64237 
-5.5708 -5.66232 -5.20086 -4.85199 -4.3687 -3.72482 -3.7473 -3.87498 -4.40161 
-4.87587 -5.40756 -5.94238 -6.02299 -3.91351 -3.48965 -3.06427 -3.14323 -2.99708 
-3.58466 -6.0245 -6.10804 -6.1981 -5.7617 -5.31536 -4.42588 -5.43134 -4.97086 
-3.99467 -3.85471 -3.38022 -3.29489 -4.33704 -4.811 -5.34234 -5.86618 -6.47336 
-6.39988 -3.84436 -3.41252 -3.36862 -2.70872 -3.24643 -2.63998 -2.73958 -2.58177 
-2.92072 -2.47384 -6.52327 -6.55508 -6.63921 -6.2617 -5.7837 -4.49963 -5.87484 
-5.99433 -5.55753 -5.10658 -4.63579 -4.15497 -3.57381 -3.51954 -2.93864 -3.00196 
-4.26322 -4.73644 -4.11506 -3.8298 -5.28044 -5.20573 -5.80212 -6.32474 -6.92037 
-6.84556 -6.74194 -3.34502 -2.85839 -2.55066 -2.34142 -2.2221 -2.33356 -2.17122 
-2.04112 -2.41467 -1.96465 -6.77359 -7.05765 -6.95521 -6.73945 -7.01777 -6.30462 
-6.42444 -6.13609 -6.47936 -5.70094 -5.26015 -4.68483 -4.25797 -4.03921 -3.66101 
-3.19918 -2.47153 -2.62474 -4.2411 -4.88444 -4.67747 -3.77193 -3.70374 -3.27353 
-5.74081 -5.46816 -5.20616 -5.12465 -6.25324 -6.66712 -6.25333 -6.40061 -6.46577 
-6.98642 -6.37731 -6.59683 -6.17091 -2.35827 -2.79318 -2.1264 -2.00056 -1.92736 
-1.79624 -1.77325 -1.61106 -1.5193 -1.45508 -1.89912 -1.84257 -1.4962 -1.68509 
-6.78576 -6.89131 -6.55842 -6.47029 -6.55122 -6.85238 -6.22872 -6.56273 -5.7847 
-6.95227 -5.34496 -4.78259 -4.29237 -4.40412 -3.91167 -3.8338 -3.79877 -3.29298 
-2.75546 -2.08295 -2.72246 -2.21358 -2.07761 -4.18873 -4.65899 -4.58858 -4.68776 
-3.62827 -4.11408 -3.20714 -5.80184 -5.71215 -5.39097 -5.00665 -4.8723 -4.54228 
-6.18827 -5.708 -6.27352 -5.92746 -5.98663 -6.52801 -5.92834 -6.30188 -5.85479 
-5.58461 -5.76816 -5.61086 -6.05439 -1.87574 -2.29313 -2.03038 -2.72145 -1.69674 
-1.45008 -1.388 -1.49938 -1.2261 -1.08714 -1.07123 -1.14881 -1.3043 -0.86932 
-1.76317 -1.29195 -1.36743 -6.85163 -6.35248 -6.32781 -6.27968 -6.77755 -6.21261 
-7.10182 -6.67801 -6.25559 -5.81618 -6.88313 -6.97357 -4.88739 -5.36301 -4.75197 
-4.40309 -3.89771 -3.68735 -3.38639 -3.39494 -3.30507 -2.88435 -2.32102 -1.75254 
-1.68053 -1.7617 -4.48093 -4.29593 -4.04999 -3.56234 -3.1392 -3.07468 -5.33795 
-5.23161 -4.75717 -4.40388 -4.05879 -5.63359 -5.37072 -5.61409 -5.4776 -5.98597 
-5.30085 -5.27459 -5.42525 -5.10783 -5.6515 -5.52813 -5.00082 -5.59238 -2.22623 
-1.71036 -2.65139 -2.19623 -1.35283 -1.2018 -0.86693 -0.717612 -1.64497 -0.817649 
-0.69211 -0.936252 -0.951416 -0.423822 -0.367233 -0.798934 -0.554428 -0.656303 -1.22068 
-0.769289 -0.74238 -0.891679 -5.85392 -5.76781 -6.17905 -5.731 -6.76501 -5.92949 
-6.76873 -7.10714 -6.6751 -6.53421 -6.23984 -5.79161 -7.12304 -7.11492 -5.15953 
-4.85477 -5.3299 -4.36852 -3.88368 -3.36127 -3.88577 -3.31213 -2.88183 -2.89958 
-2.65758 -2.3544 -1.79119 -1.46871 -1.11488 -1.00352 -4.20248 -3.80609 -3.70697 
-4.0053 -3.901 -3.50385 -3.01096 -2.58134 -2.51014 -5.14772 -4.66609 -4.28239 
-3.92667 -3.8042 -3.45793 -3.59552 -4.82266 -4.88327 -4.80692 -5.44039 -5.17464 
-5.25132 -5.50544 -5.21879 -4.66995 -4.74066 -4.47723 -4.50061 -5.45419 -4.44684 
-4.37171 -4.9267 -5.08994 -1.64973 -1.16683 -2.2558 -2.25684 -2.15165 -0.373271 
-0.515268 -0.0288586 -0.594977 -0.512354 -0.123083 -0.435608 -0.306379 -0.214388 -0.306806 
0 -2.77556e-17 2.77556e-17 -0.207271 -0.131254 -0.975917 -0.0654417 -0.657544 -0.0524685 
-0.59828 -5.50243 -5.25169 -5.20716 -5.73932 -6.30149 -6.48182 -5.39919 -5.20126 
-6.80836 -6.63041 -7.10223 -6.17945 -5.78316 -6.84012 -5.26519 -4.79273 -4.846 
-4.33103 -2.89868 -3.9625 -3.73306 -4.30482 -3.25536 -3.00018 -2.71376 -2.80357 
-2.33287 -2.29562 -1.75935 -1.37775 -1.15368 -1.18255 -1.18265 -0.556245 -0.801103 
-3.32515 -3.95552 -3.4821 -3.21961 -3.12808 -3.57531 -3.42193 -2.92261 -2.42498 
-2.14363 -4.61807 -4.14982 -4.18963 -3.713 -3.3256 -3.22792 -3.44791 -2.98467 
-4.58981 -4.23334 -4.9787 -4.92323 -5.3515 -4.34738 -4.17301 -3.9985 -3.88931 
-4.85859 -3.81381 -4.29702 -4.60877 -1.57485 -2.07481 -1.1231 -0.999313 -0.28257 
-0.181468 -3.03577e-18 -2.25514e-17 -2.77556e-17 0 0 -6.93889e-18 1.38778e-17 0 
2.77556e-17 0 -2.77556e-17 0 0 -1.38778e-17 -1.38778e-17 0 -0.534523 
6.93889e-18 6.93889e-18 -0.0931801 -0.166018 -6.93889e-18 0 -0.222063 -5.32136 -5.0875 
-4.66634 -4.73683 -5.76359 -6.31957 -6.75695 -6.413 -5.65066 -5.31876 -5.23013 
-5.21365 -6.62084 -7.07655 -6.93204 -6.13079 -5.66946 -5.72425 -4.76432 -5.19499 
-3.70885 -4.2482 -4.03947 -3.64429 -4.22685 -3.22702 -2.61359 -2.66732 -2.26085 
-2.09213 -2.20155 -2.03846 -2.17833 -1.66989 -1.71862 -1.11593 -0.797097 -0.460626 
-0.445618 -0.328967 -2.86114 -3.02627 -2.74583 -2.66781 -2.5215 -3.23139 -2.81027 
-2.30451 -2.01146 -1.91605 -1.99773 -4.13518 -3.67157 -2.85478 -2.74155 -2.94796 
-3.20834 -2.67092 -4.37044 -4.29991 -3.89621 -4.34256 -4.31433 -4.65599 -4.84825 
-4.10248 -3.59835 -3.47479 -3.51229 -3.47545 -4.32213 -4.57553 -3.39608 -3.35864 
-3.73319 -4.20903 -1.05452 -1.49124 -0.458826 -0.219915 -2.77556e-17 -2.77556e-17 0 
-1.38778e-17 -0.240452 0 1.38778e-17 0 -1.38778e-17 -2.77556e-17 -4.65002 -4.47183 
-4.0752 -4.08091 -4.24419 -4.19609 -4.23697 -5.83896 -6.9337 -6.95749 -6.46797 
-5.86555 -5.36921 -5.91978 -5.4746 -4.69253 -4.65254 -7.05732 -7.04152 -6.5899 
-7.11692 -6.10313 -6.58435 -5.63279 -5.42956 -5.18397 -4.7128 -3.06671 -3.94662 
-3.61716 -4.10771 -4.15616 -4.68049 -2.55417 -2.28724 -1.99554 -2.06427 -1.45221 
-1.55168 -1.47418 -0.992823 -0.927732 -1.08008 -0.376503 -0.451438 0 -2.77556e-17 
-0.274517 -0.0849283 -2.40252 -2.5871 -2.99419 -2.2721 -2.19784 -2.05835 -2.40771 
-2.26344 -2.70197 -2.19466 -1.90274 -1.78445 -1.71642 -4.10543 -3.65866 -3.63162 
-2.38315 -2.26665 -2.18988 -2.65571 -3.14599 -3.79887 -3.65051 -3.70917 -3.66606 
-3.67674 -3.82765 -3.91479 -3.41751 -3.02676 -3.19271 -3.41317 -2.84702 -2.94237 
-3.33642 -4.02532 -4.00035 -3.26397 -3.17874 -3.33198 -3.08311 -3.64172 -3.56181 
-0.37298 -0.965447 -1.38094 -0.920608 -0.209 0 0 -2.77556e-17 -4.11014 
-4.15583 -3.83986 -3.55509 -3.67854 -4.0941 -3.47251 -4.05782 -6.615 -6.68038 
-7.35246 -7.1579 -6.01315 -4.91412 -6.25014 -5.57413 -5.10539 -4.89159 -4.32264 
-4.25677 -7.03254 -6.10636 -6.57156 -6.56307 -7.02122 -5.62246 -5.12756 -5.14679 
-4.65386 -3.06271 -2.52545 -3.56515 -3.58212 -3.80256 -4.08344 -4.10233 -4.63762 
-1.95453 -2.24206 -1.9163 -2.48348 -1.54772 -1.4345 -1.56804 -0.856532 -0.990962 
-0.874852 -0.434619 -0.313692 -0.465399 -0.321944 0 -2.77556e-17 -0.00101231 1.38778e-17 
-2.08167e-17 0 0 0 -1.93819 -2.14342 -2.83016 -2.40572 -1.78843 
-1.71134 -1.5915 -1.91218 -1.44019 -1.83836 -2.53652 -2.61183 -2.10507 -1.65931 
-1.25413 -1.1427 -3.5344 -3.2442 -1.79066 -1.70743 -2.15972 -2.03964 -2.65056 
-3.04813 -2.59137 -3.26035 -3.30984 -3.41229 -3.1124 -3.56628 -3.01222 -3.11029 
-3.31821 -2.81025 -2.4323 -3.02418 -2.55582 -2.53323 -2.77002 -2.39539 -2.36536 
-3.42517 -2.68219 -2.60184 -3.20698 -2.51649 -3.0023 -2.43227 -0.266232 -0.140717 
-0.874879 -0.79909 0 0 -4.01868 -3.60882 -3.07086 -3.49672 -3.49139 
-2.92046 -6.34383 -6.93178 -7.47439 -5.98575 -5.76809 -5.41689 -4.72788 -4.56938 
-4.46855 -6.10965 -5.62408 -7.03042 -7.03571 -6.5799 -7.02076 -7.47832 -5.13075 
-5.02056 -2.94859 -3.54783 -3.01364 -4.08679 -3.54415 -4.08136 -4.61497 -4.62079 
-2.45018 -1.90058 -2.46961 -1.36278 -1.37448 -0.907015 -0.239156 -0.240105 -0.265293 
-0.81358 -0.280141 2.08167e-17 -1.38778e-17 1.38778e-17 0 0 0 0 
-1.47726 -1.70474 -1.97781 -1.30677 -1.13045 -1.1032 -0.942252 -1.55801 -1.30724 
-0.799696 -2.32376 -2.02696 -1.5904 -1.5113 -1.4061 -1.05756 -0.654196 -0.53151 
-2.95031 -1.66327 -1.20311 -1.14586 -1.23537 -2.12271 -1.65454 -2.52584 -3.19943 
-2.69843 -3.11417 -3.17389 -2.90803 -2.37023 -2.41185 -2.74267 -2.48971 -2.56116 
-2.49188 -2.19546 -2.32131 -2.42159 -2.2701 -2.16633 -2.4847 -2.06999 -1.74717 
-1.77508 -1.68783 -3.01122 -2.42676 -2.3644 -2.89497 -2.33507 -2.26911 -0.116136 
-0.0473442 0 0 0 -4.24641 -3.93629 -3.79776 -3.73014 -2.96014 
-3.10089 -3.20464 -2.94461 -6.51525 -7.20378 -5.83066 -6.0366 -5.17302 -5.54465 
-4.28588 -4.92228 -4.03686 -6.11376 -6.59086 -5.62946 -7.49165 -7.05754 -7.52114 
-7.32173 -4.75238 -5.13615 -2.8315 -2.99727 -4.61043 -3.60864 -4.50243 -4.0997 
-2.99879 -2.44752 -2.08243 -1.89751 -1.35765 -0.785899 -0.809368 -0.235638 0 
0 2.77556e-17 -0.0537461 2.77556e-17 0 1.38778e-17 0 0 -6.93889e-18 
-1.15169 -1.11939 -1.09777 -1.27529 -1.54788 -1.79642 -0.681215 -0.999884 -0.739576 
-0.676258 -0.457734 -2.28547 -1.92366 -1.44076 -1.08753 -0.910374 -0.974622 -0.492165 
-0.399679 0 0 -1.38778e-17 2.77556e-17 -2.73985 -2.72919 -2.3898 -2.47472 
-1.08601 -1.35912 -1.12321 -0.588181 -0.723177 -1.9499 -1.53725 -1.63881 -2.68616 
-2.10252 -2.32539 -2.65482 -2.34497 -1.7493 -2.15617 -1.81685 -1.92014 -2.0988 
-1.94113 -1.89607 -2.00247 -1.793 -1.64364 -1.71901 -1.66578 -1.9871 -1.63217 
-1.56235 -0.971496 -1.05203 -1.92392 -1.85565 -2.19152 -2.11739 -3.46945e-18 0 
-6.93889e-18 0 -3.44313 -2.50923 -3.12954 -6.73307 -6.93389 -6.40209 -5.70739 
-5.01255 -5.31767 -4.62002 -3.91762 -3.61992 -3.35205 -6.34594 -6.14629 -5.64673 
-6.68162 -7.49196 -7.54574 -7.08847 -7.79499 -7.09767 -4.63498 -5.14936 -3.01543 
-2.45124 -3.59208 -3.37296 -4.69508 -4.11516 -1.89858 -1.34781 -0.792038 -0.236699 
-0.234338 -6.93889e-18 -2.77556e-17 -0.814082 -1.01168 -1.07332 -0.492166 -1.0417 -1.2984 
-1.84789 -1.41702 -0.565862 -0.152141 -0.181602 -0.182916 -0.392316 -0.600885 1.30104e-17 
1.73472e-18 -0.182048 -0.227297 -1.4903 -1.39127 -0.893611 -0.84389 -0.349811 0 
-0.264728 -2.36756 -1.91338 -1.09138 -0.570606 -0.415712 -6.93889e-18 1.38778e-17 2.77556e-17 
-1.48518 -1.03782 -2.10832 -2.01754 -2.03255 -1.41737 -1.73742 -1.79654 -1.61826 
-1.1735 -1.13991 -1.5389 -1.97396 -1.39082 -1.26862 -1.7929 -1.85566 -1.24092 
-1.27081 -1.44188 -0.983816 -1.52854 -1.44294 -1.60055 -1.36711 -1.07945 -1.12777 
-0.254063 -0.275737 -0.925872 -0.853888 -1.51134 -1.40546 -1.75694 -1.88937 -2.05678 
-3.31293 -1.95366 -2.65475 -6.7981 -6.01545 -6.67622 -6.78386 -5.93551 -5.43353 
-5.14418 -4.78427 -4.08209 -4.40355 -3.72945 -3.21773 -2.88042 -6.20252 -6.68417 
-5.65632 -7.15598 -7.69616 -7.25414 -7.5632 -8.03116 -5.18125 -5.48051 -2.65922 
-3.04217 -2.46917 -1.91174 -3.61004 -3.66507 -3.07135 -5.20116 -4.92428 -4.76299 
-5.28368 -4.16234 -4.18043 -1.35091 -1.16476 -0.802047 -0.419223 -0.253594 2.77556e-17 
0 0 -0.183323 -0.799423 -0.219757 -0.551476 -1.03501 -0.923819 -0.796322 
-0.872326 -0.0441821 1.38778e-17 -0.0393063 0 0 0 0 0 
0 2.60209e-18 1.73472e-18 -0.0873707 0 1.38778e-17 -1.17382 -0.825711 -0.670814 
-0.360489 -2.77556e-17 0 1.38778e-17 0 -1.86143 -1.52895 -1.43682 -0.489592 
-0.847504 -0.151093 2.77556e-17 -1.13299 -0.921072 -1.53976 -1.43223 -1.42995 -1.59423 
-1.35701 -0.724503 -0.655072 -1.33903 -1.09787 -1.31157 -1.01328 -1.00069 -0.450933 
-0.973823 -0.756145 -0.503273 -1.06462 -0.500244 -0.885774 -0.908779 -0.78336 -0.840307 
-0.786501 -1.30316 -0.847318 -0.686997 -0.274045 0 0 -0.160455 -0.253664 
0 0 -0.376986 -1.24081 -1.29215 -1.15017 -1.62576 -1.59601 -1.43942 
-1.82679 -1.52687 -2.23125 -6.3356 -7.03334 -5.63488 -5.2625 -4.93459 -4.55746 
-4.23256 -3.52728 -3.36579 -2.51546 -2.64557 -3.02773 -5.70538 -6.243 -5.71982 
-6.74629 -7.62495 -7.67333 -7.22425 -7.40992 -8.09516 -8.24583 -7.93215 -7.73345 
-5.78104 -2.4808 -2.54896 -1.9543 -1.37791 -3.84928 -3.75066 -4.27122 -3.15474 
-3.06668 -2.5739 -4.88553 -4.77983 -5.32885 -0.815723 -0.304317 -0.260691 0 
-2.77556e-17 -2.77556e-17 -0.256095 -0.252901 -1.38778e-17 -0.211644 2.77556e-17 -0.150089 -0.743258 
-0.0794633 -0.532088 -0.166648 -1.00313 -0.460741 0 0 0 -1.38778e-17 
-1.02127 -0.6339 -0.407983 -0.343866 -0.368748 2.77556e-17 2.77556e-17 0 -1.35099 
-1.31701 -1.2467 -0.871281 -0.348126 -2.77556e-17 0 1.38778e-17 0 -6.93889e-18 
-0.316606 -0.631804 -0.246634 1.38778e-17 2.77556e-17 1.38778e-17 2.42861e-17 -0.378636 -0.775178 
-0.553213 -0.450906 -0.580803 -0.771803 -0.874561 -0.4982 -0.699762 1.21431e-17 2.08167e-17 
-0.525344 0 -1.38778e-17 -0.416021 -0.525489 4.16334e-17 -0.460962 -0.705635 -0.199254 
-0.612342 -0.685455 0 -1.38778e-17 -1.38778e-17 -0.091604 -0.158459 0 -2.77556e-17 
-0.0328928 -1.03792 -0.511286 -0.500257 -0.440354 -0.98118 -1.48948 -1.24163 -0.82223 
-0.916913 -1.39369 -1.10289 -1.8142 -6.61701 -6.0582 -5.96378 -7.31287 -7.43906 
-5.84736 -5.38809 -5.129 -4.64866 -4.47041 -3.85193 -3.17651 -2.8234 -2.34769 
-1.93482 -2.11954 -6.27458 -6.85461 -7.33275 -7.7076 -8.17592 -8.0666 -8.40801 
-7.70694 -5.81658 -6.37017 -2.39099 -1.98269 -1.66867 -1.41946 -0.864253 -3.89654 
-4.34298 -3.26586 -4.62736 -2.64556 -5.3862 -4.94141 -0.340755 -2.77556e-17 2.77556e-17 
2.77556e-17 1.38778e-17 0 2.77556e-17 0 1.38778e-17 6.93889e-18 -1.38778e-17 0 
-1.38778e-17 0 -0.311116 -0.368236 1.38778e-17 -0.00147278 -1.38778e-17 1.38778e-17 -2.08167e-17 
-0.298693 6.93889e-18 0 0 0 2.77556e-17 0 0 2.77556e-17 
-0.823835 -0.879611 -0.784378 -0.683208 -0.698533 -0.635479 -0.224415 0 1.38778e-17 
-0.0246448 1.38778e-17 -2.77556e-17 2.77556e-17 -3.46945e-18 -0.0188155 -0.024024 -0.073157 1.73472e-18 
-0.286123 -0.815961 -0.293484 0 -2.77556e-17 -0.0430201 0 -1.38778e-17 0 
0 0 -0.0231356 -0.0751689 2.08167e-17 2.42861e-17 -0.55107 0 0 
1.38778e-17 0 -1.38778e-17 -3.46945e-18 0 1.38778e-17 0 0 1.38778e-17 
2.77556e-17 -0.332375 -0.343519 -0.811291 -0.43999 -0.220241 -0.219785 -0.465749 -0.379656 
-0.68841 -1.40898 -1.24185 -1.6745 -6.30305 -7.0039 -5.60126 -4.89646 -4.18721 
-3.48256 -2.77366 -3.12176 -2.39886 -1.85111 -1.59265 -7.19033 -6.95317 -6.42939 
-7.80417 -7.44466 -8.27336 -8.74346 -8.63608 -8.23949 -8.05614 -7.35468 -7.80675 
-6.00342 -2.03526 -1.44251 -1.53912 -0.944125 -0.366511 -4.38839 -3.97339 -3.61395 
-3.36139 -2.86234 -4.53822 -5.02426 -2.75613 -2.16656 -5.51462 -5.35524 -1.38778e-17 
0 -2.77556e-17 0 -2.77556e-17 0 0 0 1.38778e-17 0 
-0.259015 -0.709072 -0.23553 -0.0935649 -0.399045 -0.127589 0 0 0 
0 3.46945e-18 1.73472e-18 0 0 3.46945e-18 0 0 0 
0 0 0 -0.0939365 0 -0.0896656 1.38778e-17 -6.93889e-18 3.46945e-18 
0 -6.93889e-18 3.46945e-18 -1.38778e-17 1.38778e-17 -6.93889e-18 -0.052305 -0.245965 -1.38778e-17 
0 -0.120499 0 0 0 2.77556e-17 -0.281964 -1.00972 -0.851684 
-5.94804 -6.65045 -6.43136 -6.16837 -7.11281 -6.88098 -5.75071 -5.41394 -5.244 
-4.53715 -5.1005 -4.62519 -4.47418 -3.78226 -2.98717 -3.22156 -2.62313 -2.05875 
-1.72744 -1.22994 -7.10911 -7.5809 -6.48838 -7.91641 -7.99262 -8.35347 -8.04921 
-8.7687 -8.4106 -8.8548 -8.77278 -8.07214 -7.62561 -7.71052 -6.06935 -6.63283 
-5.5539 -1.58542 -1.16572 -0.452816 -1.04067 -0.519239 1.38778e-17 -4.35362 -4.0642 
-3.6007 -3.41519 -2.94688 -4.59884 -5.19107 -5.66941 -5.03288 -2.30299 -1.67078 
1.38778e-17 0 0 1.38778e-17 0 -0.10178 -0.0253176 1.38778e-17 0 
1.38778e-17 6.93889e-18 0 6.93889e-18 0 0 0 0 0 
0 0 -1.38778e-17 0 -1.38778e-17 -0.616715 -0.841688 -6.66528 -6.30245 
-5.96247 -7.00572 -7.36952 -5.59793 -5.25377 -4.89242 -4.18358 -3.4773 -3.12093 
-2.7674 -2.40513 -1.43112 -1.68584 -1.85426 -1.34244 -7.26751 -7.73824 -6.90442 
-8.20296 -8.38493 -8.51618 -8.98449 -8.44101 -9.14215 -7.73989 -6.32323 -6.76877 
-1.20013 0 0 -0.572233 -0.0903491 -0.0358802 0 -4.72149 -4.2625 
-4.07713 -3.69848 -3.40362 -3.03031 -2.71629 -5.25055 -5.85144 -5.69255 -5.3854 
-2.42532 -1.84358 -1.32419 0 0 -3.46945e-18 0 2.77556e-17 -0.469833 
-0.963655 -0.552893 -0.242692 -1.03825 -6.3324 -7.03616 -6.85394 -6.47662 -6.24031 
-5.5573 -7.31113 -5.08501 -4.6403 -4.5462 -3.78287 -3.87794 -4.48614 -3.26911 
-2.90534 -2.69057 -2.14378 -1.60256 -2.04834 -1.62451 -1.32157 -7.35127 -7.91142 
-8.37196 -7.80477 -6.98131 -8.66671 -9.1314 -8.11473 -8.81696 -8.72502 -9.51739 
-9.40039 -8.94794 -7.47519 -6.51771 -6.30027 -5.92473 -0.732472 -0.826474 -0.256743 
1.38778e-17 0 -1.38778e-17 -1.38778e-17 -6.93889e-18 6.93889e-18 -4.93115 -4.76121 -4.34269 
-3.81758 -4.49097 -3.15536 -2.49749 -2.73088 -5.6062 -5.37312 -5.03236 -2.06024 
-1.39283 -0.941283 0 -1.18105 -0.970553 -0.42174 -0.259487 -0.051963 0 
-2.77556e-17 -7.09128 -6.70792 -6.3873 -6.00335 -5.29311 -7.41131 -4.91465 -4.20733 
-3.50104 -3.1311 -2.41684 -2.23481 -2.06783 -1.47741 -1.35051 -7.44404 -8.1041 
-8.45155 -8.83218 -8.89587 -7.64493 -7.18961 -6.87013 -6.65367 -9.34635 -9.64426 
-7.79468 -8.49775 -8.88713 -9.58615 -9.19873 -6.05746 -6.28609 -0.385025 2.77556e-17 
-3.3974 -4.0701 -3.99676 -3.44662 -4.74296 -4.57367 -4.12624 -3.31054 -2.82089 
-2.48402 -5.7631 -5.16657 -5.42434 -2.26497 -1.62578 -1.77884 -1.18382 -0.733611 
-0.479875 -0.747489 -1.29852 -0.645616 -0.374018 0 1.38778e-17 -0.149422 0 
0 0 -6.77929 -7.4831 -6.64665 -6.03279 -5.68243 -5.56022 -5.03859 
-4.82147 -4.58549 -4.4736 -3.8657 -3.33415 -2.77544 -2.45137 -1.84205 -2.37201 
-1.74258 -1.0514 -8.31577 -8.76331 -8.55898 -9.01474 -9.4713 -7.86542 -7.37597 
-6.97019 -6.73448 -9.75533 -9.92817 -8.18595 -9.28124 -8.58273 -9.97907 -6.55819 
-5.95798 2.42861e-17 -6.93889e-18 -3.67284 -4.91638 -4.34418 -2.99552 -2.5973 -2.31268 
-5.84905 -5.66408 -6.11122 -5.11754 -1.88994 -1.35366 -0.293129 -0.989403 -0.79313 
0 -0.917662 -0.616399 2.08167e-17 2.77556e-17 -0.146579 -0.245114 0 -1.38778e-17 
-7.15905 -7.8813 -7.71149 -6.47597 -6.88636 -5.77346 -5.36918 -4.97228 -4.66498 
-4.2671 -3.5594 -3.16759 -2.71348 -2.15215 -1.4277 -1.49596 -2.02978 -8.54181 
-8.98495 -9.21502 -9.43017 -9.66547 -8.09976 -7.47013 -8.00966 -7.65948 -7.22466 
-7.01918 -10.1172 -8.98491 -9.68224 -8.53168 -8.28626 -10.3784 -6.80123 -3.9659 
-3.87278 -3.38444 -3.29089 -5.017 -4.63867 -4.50847 -4.03832 -3.09956 -2.84378 
-2.19067 -2.39825 -5.31317 -5.74175 -6.39074 -6.20604 -1.46403 -1.78431 -0.61409 
1.38778e-17 0 0 -0.202942 -1.37563 -0.97473 -1.30484 -0.833882 -0.675417 
1.38778e-17 6.93889e-18 -0.189789 -1.38778e-17 -7.58515 -8.2211 -8.00102 -6.18733 -6.61074 
-7.30464 -6.0513 -5.49254 -5.38127 -5.07398 -4.985 -4.45605 -4.08637 -3.96168 
-3.39898 -2.88738 -2.57531 -2.52906 -1.9231 -2.37163 -8.78426 -9.22269 -8.5733 
-8.17722 -9.6608 -10.1004 -9.87484 -7.91956 -7.44366 -7.0839 -10.3218 -8.74222 
-9.39351 -9.2759 -10.0885 -9.74971 -8.42326 -10.7712 -3.5971 -3.91884 -4.27698 
-3.23063 -4.80591 -2.90684 -2.51876 -1.999 -2.13617 -5.62222 -5.99521 -5.05019 
-5.56276 -6.70141 -6.3039 -0.37943 0 -2.77556e-17 -1.67037 -1.41692 -0.587352 
-1.00083 -1.19403 -1.84761 -1.76917 -1.17979 -0.537668 -0.34001 1.38778e-17 -1.38778e-17 
-7.73149 -6.54153 -7.04237 -5.92035 -6.35674 -5.23794 -4.8026 -4.37662 -4.12166 
-3.68582 -3.26157 -2.87235 -2.28269 -2.83381 -2.79652 -9.07387 -9.47533 -9.02247 
-9.90622 -8.35102 -8.61663 -10.3406 -10.5409 -7.49511 -8.1938 -7.99477 -7.38089 
-7.78091 -7.17587 -9.11483 -9.5392 -9.82525 -10.5018 -10.3114 -8.16511 -8.85061 
-10.9829 -4.25552 -4.60024 -4.15634 -3.77693 -3.56423 -2.85942 -4.94787 -2.49035 
-2.12731 -1.75085 -5.73171 -5.27251 -6.99407 -6.05965 -6.62741 -6.55732 -0.0983431 
1.38778e-17 -1.76961 -1.17782 -0.224801 -0.651223 -1.70683 -2.2544 -1.06437 -1.66037 
-1.08599 -1.04475 -0.402638 0 -7.95053 -7.51536 -6.80109 -7.47743 -7.24965 
-5.682 -6.13159 -5.57314 -5.07538 -4.52363 -4.06316 -3.54894 -3.01192 -2.7383 
-3.24144 -3.46085 -3.22142 -9.31516 -9.47738 -9.73913 -10.1637 -10.5913 -8.89526 
-10.773 -8.42862 -8.08047 -7.69016 -7.62546 -7.31552 -9.28497 -9.97003 -10.2299 
-10.9222 -10.7603 -10.6583 -8.60266 -8.41599 -11.2093 -11.3489 -4.60926 -4.87233 
-4.9362 -3.91001 -4.27565 -3.57206 -3.32159 -3.20706 -2.85175 -2.50747 -2.17342 
-5.94649 -5.60507 -5.40047 -5.03869 -6.78573 -6.28228 0 0 0 
-1.42356 -1.8456 -1.00084 0 0 -0.338225 -2.20897 -2.17861 -2.14218 
-1.6084 -1.18995 -1.002 -0.593078 -0.390445 0 -7.70421 -8.37178 -6.58671 
-7.04555 -6.06977 -6.53964 -5.47657 -5.93915 -5.01957 -4.37836 -3.91835 -3.20189 
-2.77928 -3.30988 -3.8118 -3.70631 -3.69971 -3.77728 -9.59981 -9.87929 -10.0161 
-10.4347 -10.8555 -11.019 -11.2781 -9.18744 -8.61836 -11.4498 -8.3917 -7.85097 