# vtk DataFile Version 4.2
3D Slicer output. SPACE=LPS
ASCII
DATASET POLYDATA
FIELD FieldData 2
MaterialNames 1 2 string
mtl1
NO_MATERIAL

MaterialLibraries 1 1 string
CIIFD_vtkMRMLModelNodeF.mtl

POINTS 1148 float
-1.11004 -18.1262 12.781 -1.10725 -18.1708 12.8028 -1.15857 -18.0042 12.725 
-1.09627 -18.1592 12.799 -1.28628 -18.0724 12.7711 -1.07617 -18.3441 12.9394 
-1.26462 -18.2725 12.903 -1.09317 -18.1688 12.8102 -1.19226 -17.9088 12.694 
-1.40101 -17.9764 12.7631 -1.31337 -17.7862 12.6664 -1.47285 -18.1036 12.9496 
-1.22214 -18.4574 13.0657 -1.06211 -18.4732 13.0428 -1.04028 -18.3552 12.9704 
-1.0538 -18.3154 12.9339 -1.36345 -18.3337 13.0223 -1.23052 -17.7807 12.6705 
-1.48418 -17.8651 12.7731 -1.55976 -17.5832 12.7262 -1.38413 -17.436 12.555 
-1.25315 -17.6734 12.6485 -1.29399 -17.4589 12.5808 -1.66652 -17.9132 13.061 
-1.60308 -17.8207 12.8831 -1.42693 -18.4056 13.236 -1.63796 -18.1409 13.264 
-1.23337 -18.6018 13.2873 -1.05447 -18.5752 13.1891 -1.00683 -18.4474 13.0593 
-1.74064 -17.2349 12.7937 -1.54296 -17.3043 12.6056 -1.76125 -17.6132 12.9922 
-1.44175 -17.2462 12.5158 -1.36771 -17.2935 12.486 -1.31808 -17.3102 12.5044 
-1.31537 -17.3549 12.5276 -1.80364 -17.8667 13.2726 -1.6082 -18.3873 13.5474 
-1.35536 -18.6759 13.5843 -1.79564 -18.1162 13.5421 -1.06118 -18.7382 13.4606 
-0.975289 -18.5794 13.2512 -0.995757 -18.5073 13.1513 -1.76783 -16.8654 12.7638 
-1.52112 -17.0367 12.6114 -1.9234 -17.3212 13.0476 -2.01134 -16.9536 13.0145 
-1.95797 -17.5705 13.2667 -1.35461 -17.1821 12.5159 -1.34809 -17.1954 12.5159 
-1.96477 -17.839 13.5328 -1.78431 -18.3314 13.8075 -1.60404 -18.5739 13.8447 
-1.14512 -18.8555 13.6757 -1.26777 -18.8636 13.8131 -1.43647 -18.7692 13.8903 
-1.95232 -18.087 13.7939 -0.960331 -18.6649 13.4064 -0.977502 -18.8631 13.6926 
-0.954491 -18.7384 13.5294 -1.76095 -16.6148 12.7819 -1.57397 -16.7064 12.7077 
-1.9077 -16.6816 12.8747 -1.39544 -17.0332 12.5993 -1.42452 -16.9188 12.6501 
-1.46316 -16.7563 12.697 -2.10373 -17.2662 13.262 -2.07246 -16.5872 13.035 
-2.30327 -16.9841 13.3544 -2.2131 -16.7308 13.1777 -2.1545 -17.5374 13.5325 
-1.35288 -17.1765 12.5187 -1.35093 -17.1827 12.5176 -2.10248 -17.8454 13.7597 
-1.78519 -18.4697 14.0359 -1.92759 -18.2782 14.0052 -1.59896 -18.7195 14.1858 
-1.06616 -18.9325 13.924 -1.30948 -18.9024 14.0513 -2.12139 -18.059 14.0318 
-0.929493 -18.8566 13.7528 -0.928914 -18.8241 13.6681 -1.6132 -16.4531 12.8146 
-1.86487 -16.414 12.923 -1.47499 -16.6295 12.755 -1.49181 -16.4972 12.8114 
-2.23913 -17.267 13.4332 -2.0828 -16.314 13.1065 -2.3034 -16.4688 13.2722 
-2.35133 -16.7066 13.3168 -2.53237 -17.0171 13.603 -2.3825 -17.3042 13.6256 
-2.56852 -16.6863 13.5317 -2.30824 -17.6951 13.8741 -1.97571 -18.3902 14.277 
-1.80281 -18.6683 14.56 -1.34983 -18.9428 14.2971 -1.48495 -18.9056 14.5519 
-0.957636 -18.8925 13.9089 -1.10979 -19.0006 14.2623 -0.969769 -18.9241 14.0479 
-2.33954 -17.9313 14.1555 -2.24054 -18.136 14.2852 -1.63593 -16.2125 12.9684 
-1.50468 -16.3825 12.8705 -1.52773 -16.2704 12.9409 -1.89921 -16.1135 13.0988 
-2.22768 -16.0263 13.3454 -2.56055 -16.2925 13.5326 -2.78729 -16.9323 13.7937 
-2.60761 -17.1978 13.7699 -2.54412 -17.4584 13.9012 -2.82654 -16.6819 13.7432 
-2.82863 -16.4639 13.7311 -2.547 -17.7263 14.1465 -2.06327 -18.4566 14.5635 
-2.25797 -18.266 14.5016 -1.81826 -18.7285 14.8381 -1.64879 -18.8353 14.7536 
-2.0587 -18.5513 14.8145 -1.22544 -19.026 14.5034 -1.48087 -18.9488 14.8662 
-1.27772 -19.021 14.7777 -1.06955 -19.0473 14.481 -0.981335 -18.9567 14.2266 
-0.998176 -18.9911 14.3874 -2.50731 -18.0087 14.4299 -1.55081 -16.1867 13.0037 
-1.61445 -15.9704 13.1521 -1.62106 -15.9497 13.1695 -1.91429 -15.8541 13.2677 
-1.62362 -15.941 13.1754 -2.08084 -15.7642 13.383 -2.55598 -15.9786 13.6248 
-2.35452 -15.7763 13.5724 -2.20564 -15.7491 13.4688 -2.82054 -16.1624 13.7698 
-3.08826 -16.6691 13.9539 -2.81021 -17.2732 13.9926 -3.04797 -17.0079 14.0295 
-2.68346 -17.5299 14.0817 -3.04793 -16.3397 13.9138 -2.82528 -17.7579 14.4189 
-2.71759 -17.642 14.2093 -2.2426 -18.3797 14.6993 -2.51263 -18.2193 14.7646 
-1.93052 -18.6849 15.1152 -1.66986 -18.8418 14.999 -2.25199 -18.498 15.1097 
-2.32481 -18.3974 14.8862 -1.06092 -19.0332 14.6917 -1.05052 -19.0371 14.656 
-1.49341 -18.9371 15.1082 -1.31302 -19.0066 15.0475 -1.06556 -19.0328 14.7164 
-1.11088 -19.0228 15.0048 -1.00558 -19.0209 14.4803 -2.83573 -17.9983 14.7358 
-1.92978 -15.676 13.3956 -1.69932 -15.7044 13.3724 -1.70164 -15.6942 13.3798 
-2.07519 -15.5914 13.5587 -2.77356 -15.8895 13.8528 -2.53898 -15.7389 13.7637 
-2.24203 -15.6538 13.5742 -2.30454 -15.5673 13.7493 -3.08723 -16.0428 14.027 
-3.36958 -16.6536 14.1425 -3.3647 -16.9107 14.2085 -3.36186 -16.3856 14.1356 
-3.16287 -17.2603 14.2431 -2.88587 -17.5093 14.2259 -3.18862 -17.5488 14.4755 
-3.14532 -17.8114 14.7254 -2.54587 -18.3282 15.0891 -2.83466 -18.163 15.0395 
-1.90928 -18.7008 15.3655 -1.65352 -18.8209 15.3393 -2.12858 -18.5865 15.387 
-2.47536 -18.4192 15.4243 -1.35867 -18.9515 15.2843 -1.17567 -18.994 15.2136 
-1.0943 -19.0256 14.9312 -1.10318 -19.0211 15.003 -1.10591 -19.0192 15.0135 
-3.15907 -18.0094 15.0296 -1.84999 -15.5721 13.5023 -1.70735 -15.6796 13.3946 
-1.92629 -15.5103 13.6344 -2.06614 -15.4775 13.7593 -2.13067 -15.4677 13.8185 
-2.68642 -15.6831 13.9391 -2.89576 -15.7373 14.0688 -2.51416 -15.5604 13.922 
-2.3698 -15.4649 13.9367 -2.25515 -15.4408 13.9015 -2.20873 -15.4379 13.8881 
-3.47519 -16.0345 14.2897 -3.17651 -15.7689 14.2451 -3.60242 -16.6448 14.292 
-3.71965 -16.9332 14.4224 -3.49273 -17.1941 14.4081 -3.76258 -16.3242 14.3857 
-3.34271 -17.3635 14.4213 -3.45615 -17.6654 14.747 -3.51275 -17.4294 14.569 
-3.3951 -17.8537 14.9355 -2.81236 -18.2652 15.3448 -3.06197 -18.1485 15.2698 
-1.89155 -18.6687 15.628 -1.58833 -18.7766 15.6519 -1.36808 -18.8656 15.5275 
-2.24477 -18.5085 15.7138 -2.50692 -18.405 15.7174 -2.746 -18.3163 15.6497 
-1.17766 -18.9698 15.2878 -1.20854 -18.9373 15.3779 -1.15566 -18.9868 15.2178 
-3.47581 -17.971 15.1618 -3.30611 -18.0875 15.3173 -1.75178 -15.5482 13.5489 
-1.8628 -15.5172 13.5981 -2.67291 -15.4943 14.1543 -2.95817 -15.5627 14.2767 
-2.4727 -15.4477 14.0511 -2.33545 -15.4242 13.9983 -2.41041 -15.4196 14.0645 
-2.26006 -15.4271 13.9349 -3.75252 -16.0796 14.427 -3.69518 -15.8966 14.4761 
-3.4393 -15.7461 14.4221 -3.20174 -15.5158 14.4831 -3.9241 -16.6531 14.4643 
-3.82233 -17.2322 14.5952 -4.04729 -16.9419 14.5678 -4.07396 -16.4119 14.5263 
-4.03675 -16.0681 14.5823 -3.77144 -17.5272 14.768 -3.71297 -17.7879 15.0061 
-3.12635 -18.1945 15.593 -1.64857 -18.6658 15.9127 -2.01758 -18.5217 16.0131 
-1.35881 -18.7593 15.7968 -1.22234 -18.9193 15.4248 -1.26349 -18.8473 15.5555 
-2.41003 -18.4139 15.9207 -2.23974 -18.4786 15.9282 -2.62164 -18.3383 15.8864 
-2.87742 -18.2503 15.923 -3.7528 -18.0024 15.3522 -3.50366 -18.0506 15.3325 
-3.472 -18.1088 15.4965 -2.51071 -15.4045 14.1652 -2.58113 -15.3972 14.251 
-2.8201 -15.3623 14.4336 -2.86345 -15.3584 14.4708 -2.89887 -15.3581 14.4927 
-2.48068 -15.4077 14.1312 -3.61929 -15.7011 14.5582 -3.82945 -15.7567 14.6463 
-3.46735 -15.5726 14.5801 -3.41211 -15.3741 14.7721 -3.14228 -15.3533 14.635 
-3.37074 -15.3639 14.7591 -4.2496 -16.6661 14.5832 -4.0724 -17.3929 14.7671 
-4.13761 -17.1714 14.6726 -4.39557 -16.9883 14.6715 -4.34206 -16.3689 14.6135 
-4.39816 -16.1406 14.669 -4.08276 -15.7555 14.7703 -4.35293 -15.9177 14.7494 
-4.05065 -17.6251 14.9324 -4.06185 -17.8355 15.1555 -3.44761 -18.1556 15.7485 
-3.23144 -18.1743 15.9624 -1.6532 -18.5147 16.2583 -1.36232 -18.6886 15.9468 
-1.39091 -18.6279 16.0681 -2.21216 -18.3858 16.2357 -2.28575 -18.4262 16.0627 
-1.96444 -18.4001 16.3656 -1.32058 -18.7673 15.7695 -1.33141 -18.7502 15.8093 
-2.55643 -18.2819 16.2014 -2.97369 -18.1705 16.2151 -4.14675 -17.9948 15.4003 
-3.67105 -18.1101 15.6269 -3.95249 -18.0955 15.6493 -3.68188 -15.5449 14.7425 
-3.89518 -15.6052 14.8002 -3.41371 -15.3667 14.7834 -3.74772 -15.351 15.0183 
-3.76139 -15.3595 15.0152 -3.4033 -15.3659 14.7773 -4.66058 -16.6508 14.656 
-4.3539 -17.288 14.7712 -4.29585 -17.4971 14.8783 -4.5973 -17.2017 14.7607 
-4.70597 -17.0056 14.7068 -4.59841 -16.3049 14.6698 -4.64563 -16.0719 14.735 
-4.31947 -15.7068 14.8776 -4.0934 -15.5206 14.9807 -4.63082 -15.796 14.868 
-4.37483 -17.6987 15.043 -4.32252 -17.8801 15.2298 -3.69765 -18.1404 15.883 
-3.46504 -18.1578 15.922 -3.25975 -18.1222 16.2307 -3.4855 -18.1367 16.087 
-1.74229 -18.371 16.5174 -1.49921 -18.3556 16.5555 -1.43759 -18.4971 16.318 
-1.39684 -18.6123 16.1024 -2.24314 -18.2357 16.5286 -1.93285 -18.2573 16.6442 
-2.57674 -18.1215 16.5739 -2.80955 -18.1361 16.4284 -3.11804 -18.0399 16.5238 
-4.45286 -17.9968 15.3844 -4.33915 -18.1165 15.6598 -4.07707 -18.1475 15.9786 
-3.84688 -15.4971 14.8828 -3.76158 -15.3498 15.031 -4.08704 -15.2934 15.3063 
-4.11596 -15.3061 15.3023 -4.96694 -16.9388 14.6903 -5.08668 -16.6413 14.6581 
-4.92743 -16.3065 14.6907 -4.60606 -17.4674 14.8877 -4.90263 -17.2536 14.781 
-4.95198 -15.9869 14.7818 -4.4515 -15.5771 15.0183 -4.33708 -15.4319 15.1683 
-4.97175 -15.7393 14.9156 -4.72536 -15.6113 15.0155 -4.68977 -17.7058 15.048 
-4.5721 -17.8614 15.1981 -3.7605 -18.1222 16.1607 -3.51797 -18.0726 16.3638 
-1.68661 -18.2218 16.7432 -1.43338 -18.4183 16.4553 -1.43527 -18.3483 16.5545 
-1.46445 -18.268 16.6561 -2.37323 -18.0218 16.8321 -2.08907 -18.0918 16.8375 
-1.86926 -18.1289 16.8532 -2.81813 -18.0449 16.6254 -2.66892 -17.9573 16.8281 
-3.46273 -17.952 16.6775 -3.19092 -17.8574 16.8721 -2.92575 -17.9413 16.7786 
-4.68801 -17.989 15.3317 -4.6559 -18.1088 15.5173 -4.63568 -18.2014 15.739 
-4.45922 -18.2083 15.9725 -4.30408 -18.1793 16.2113 -4.01919 -18.1104 16.3275 
-4.11213 -15.294 15.3256 -4.41888 -15.3439 15.3373 -4.15534 -15.2971 15.3405 
-4.41773 -15.3074 15.4256 -5.17347 -17.1483 14.718 -5.27707 -16.9253 14.6627 
-5.41731 -16.6588 14.6307 -5.31193 -16.3708 14.6628 -5.22917 -16.1257 14.7198 
-4.99153 -17.6064 14.9484 -5.2462 -17.3977 14.7957 -5.2877 -15.8852 14.8143 
-4.63118 -15.447 15.1985 -5.27254 -15.634 14.979 -4.95624 -15.5348 15.0968 
[...]
CELL_DATA 2006
FIELD FieldData 2
MaterialIds 1 2006 int
1 1 1 1 1 1 1 1 1 
1 1 1 1 1 1 1 1 1 
1 1 1 1 1 1 1 1 1 
1 1 1 1 1 1 1 1 1 
1 1 1 1 1 1 1 1 1 
1 1 1 1 1 1 1 1 1 
1 1 1 1 1 1 1 1 1 
1 1 1 1 1 1 1 1 1 
1 1 1 1 1 1 1 1 1 
1 1 1 1 1 1 1 1 1 
1 1 1 1 1 1 1 1 1 
1 1 1 1 1 1 1 1 1 
1 1 1 1 1 1 1 1 1 
1 1 1 1 1 1 1 1 1 
1 1 1 1 1 1 1 1 1 
1 1 1 1 1 1 1 1 1 
1 1 1 1 1 1 1 1 1 
1 1 1 1 1 1 1 1 1 
1 1 1 1 1 1 1 1 1 
1 1 1 1 1 1 1 1 1 
1 1 1 1 1 1 1 1 1 
1 1 1 1 1 1 1 1 1 
1 1 1 1 1 1 1 1 1 
1 1 1 1 1 1 1 1 1 
1 1 1 1 1 1 1 1 1 
1 1 1 1 1 1 1 1 1 
1 1 1 1 1 1 1 1 1 
1 1 1 1 1 1 1 1 1 
1 1 1 1 1 1 1 1 1 
1 1 1 1 1 1 1 1 1 
1 1 1 1 1 1 1 1 1 
1 1 1 1 1 1 1 1 1 
1 1 1 1 1 1 1 1 1 
1 1 1 1 1 1 1 1 1 
1 1 1 1 1 1 1 1 1 
1 1 1 1 1 1 1 1 1 
1 1 1 1 1 1 1 1 1 
1 1 1 1 1 1 1 1 1 
1 1 1 1 1 1 1 1 1 
1 1 1 1 1 1 1 1 1 
1 1 1 1 1 1 1 1 1 
1 1 1 1 1 1 1 1 1 
1 1 1 1 1 1 1 1 1 
1 1 1 1 1 1 1 1 1 
1 1 1 1 1 1 1 1 1 
1 1 1 1 1 1 1 1 1 
1 1 1 1 1 1 1 1 1 
1 1 1 1 1 1 1 1 1 
1 1 1 1 1 1 1 1 1 
1 1 1 1 1 1 1 1 1 
1 1 1 1 1 1 1 1 1 
1 1 1 1 1 1 1 1 1 
1 1 1 1 1 1 1 1 1 
1 1 1 1 1 1 1 1 1 
1 1 1 1 1 1 1 1 1 
1 1 1 1 1 1 1 1 1 
1 1 1 1 1 1 1 1 1 
1 1 1 1 1 1 1 1 1 
1 1 1 1 1 1 1 1 1 
1 1 1 1 1 1 1 1 1 
1 1 1 1 1 1 1 1 1 
1 1 1 1 1 1 1 1 1 
1 1 1 1 1 1 1 1 1 
1 1 1 1 1 1 1 1 1 
1 1 1 1 1 1 1 1 1 
1 1 1 1 1 1 1 1 1 
1 1 1 1 1 1 1 1 1 
1 1 1 1 1 1 1 1 1 
1 1 1 1 1 1 1 1 1 
1 1 1 1 1 1 1 1 1 
1 1 1 1 1 1 1 1 1 
1 1 1 1 1 1 1 1 1 
1 1 1 1 1 1 1 1 1 
1 1 1 1 1 1 1 1 1 
1 1 1 1 1 1 1 1 1 
1 1 1 1 1 1 1 1 1 
1 1 1 1 1 1 1 1 1 
1 1 1 1 1 1 1 1 1 
1 1 1 1 1 1 1 1 1 
1 1 1 1 1 1 1 1 1 
1 1 1 1 1 1 1 1 1 
1 1 1 1 1 1 1 1 1 
1 1 1 1 1 1 1 1 1 
1 1 1 1 1 1 1 1 1 
1 1 1 1 1 1 1 1 1 
1 1 1 1 1 1 1 1 1 
1 1 1 1 1 1 1 1 1 
1 1 1 1 1 1 1 1 1 
1 1 1 1 1 1 1 1 1 
1 1 1 1 1 1 1 1 1 
1 1 1 1 1 1 1 1 1 
1 1 1 1 1 1 1 1 1 
1 1 1 1 1 1 1 1 1 
1 1 1 1 1 1 1 1 1 
1 1 1 1 1 1 1 1 1 
1 1 1 1 1 1 1 1 1 
1 1 1 1 1 1 1 1 1 
1 1 1 1 1 1 1 1 1 
1 1 1 1 1 1 1 1 1 
1 1 1 1 1 1 1 1 1 
1 1 1 1 1 1 1 1 1 
1 1 1 1 1 1 1 1 1 
1 1 1 1 1 1 1 1 1 
1 1 1 1 1 1 1 1 1 
1 1 1 1 1 1 1 1 1 
1 1 1 1 1 1 1 1 1 
1 1 1 1 1 1 1 1 1 
1 1 1 1 1 1 1 1 1 
1 1 1 1 1 1 1 1 1 
1 1 1 1 1 1 1 1 1 
1 1 1 1 1 1 1 1 1 
1 1 1 1 1 1 1 1 1 
1 1 1 1 1 1 1 1 1 
1 1 1 1 1 1 1 1 1 
1 1 1 1 1 1 1 1 1 
1 1 1 1 1 1 1 1 1 
1 1 1 1 1 1 1 1 1 
1 1 1 1 1 1 1 1 1 
1 1 1 1 1 1 1 1 1 
1 1 1 1 1 1 1 1 1 
1 1 1 1 1 1 1 1 1 
1 1 1 1 1 1 1 1 1 
1 1 1 1 1 1 1 1 1 
1 1 1 1 1 1 1 1 1 
1 1 1 1 1 1 1 1 1 
1 1 1 1 1 1 1 1 1 
1 1 1 1 1 1 1 1 1 
1 1 1 1 1 1 1 1 1 
1 1 1 1 1 1 1 1 1 
1 1 1 1 1 1 1 1 1 
1 1 1 1 1 1 1 1 1 
1 1 1 1 1 1 1 1 1 
1 1 1 1 1 1 1 1 1 
1 1 1 1 1 1 1 1 1 
1 1 1 1 1 1 1 1 1 
1 1 1 1 1 1 1 1 1 
1 1 1 1 1 1 1 1 1 
1 1 1 1 1 1 1 1 1 
1 1 1 1 1 1 1 1 1 
1 1 1 1 1 1 1 1 1 
1 1 1 1 1 1 1 1 1 
1 1 1 1 1 1 1 1 1 
1 1 1 1 1 1 1 1 1 
1 1 1 1 1 1 1 1 1 
1 1 1 1 1 1 1 1 1 
1 1 1 1 1 1 1 1 1 
1 1 1 1 1 1 1 1 1 
1 1 1 1 1 1 1 1 1 
1 1 1 1 1 1 1 1 1 
1 1 1 1 1 1 1 1 1 
1 1 1 1 1 1 1 1 1 
1 1 1 1 1 1 1 1 1 
1 1 1 1 1 1 1 1 1 
1 1 1 1 1 1 1 1 1 
1 1 1 1 1 1 1 1 1 
1 1 1 1 1 1 1 1 1 
1 1 1 1 1 1 1 1 1 
1 1 1 1 1 1 1 1 1 
1 1 1 1 1 1 1 1 1 
1 1 1 1 1 1 1 1 1 
1 1 1 1 1 1 1 1 1 
1 1 1 1 1 1 1 1 1 
1 1 1 1 1 1 1 1 1 
1 1 1 1 1 1 1 1 1 
1 1 1 1 1 1 1 1 1 
1 1 1 1 1 1 1 1 1 
1 1 1 1 1 1 1 1 1 
1 1 1 1 1 1 1 1 1 
1 1 1 1 1 1 1 1 1 
1 1 1 1 1 1 1 1 1 
1 1 1 1 1 1 1 1 1 
1 1 1 1 1 1 1 1 1 
1 1 1 1 1 1 1 1 1 
1 1 1 1 1 1 1 1 1 
1 1 1 1 1 1 1 1 1 
1 1 1 1 1 1 1 1 1 
1 1 1 1 1 1 1 1 1 
1 1 1 1 1 1 1 1 1 
1 1 1 1 1 1 1 1 1 
1 1 1 1 1 1 1 1 1 
1 1 1 1 1 1 1 1 1 
1 1 1 1 1 1 1 1 1 
1 1 1 1 1 1 1 1 1 
1 1 1 1 1 1 1 1 1 
1 1 1 1 1 1 1 1 1 
1 1 1 1 1 1 1 1 1 
1 1 1 1 1 1 1 1 1 
1 1 1 1 1 1 1 1 1 
1 1 1 1 1 1 1 1 1 
1 1 1 1 1 1 1 1 1 
1 1 1 1 1 1 1 1 1 
1 1 1 1 1 1 1 1 1 
1 1 1 1 1 1 1 1 1 
1 1 1 1 1 1 1 1 1 
1 1 1 1 1 1 1 1 1 
1 1 1 1 1 1 1 1 1 
1 1 1 1 1 1 1 1 1 
1 1 1 1 1 1 1 1 1 
1 1 1 1 1 1 1 1 1 
1 1 1 1 1 1 1 1 1 
1 1 1 1 1 1 1 1 1 
1 1 1 1 1 1 1 1 1 
1 1 1 1 1 1 1 1 1 
1 1 1 1 1 1 1 1 1 
1 1 1 1 1 1 1 1 1 
1 1 1 1 1 1 1 1 1 
1 1 1 1 1 1 1 1 1 
1 1 1 1 1 1 1 1 1 
1 1 1 1 1 1 1 1 1 
1 1 1 1 1 1 1 1 1 
1 1 1 1 1 1 1 1 1 
1 1 1 1 1 1 1 1 1 
1 1 1 1 1 1 1 1 1 
1 1 1 1 1 1 1 1 1 
1 1 1 1 1 1 1 1 1 
1 1 1 1 1 1 1 1 1 
1 1 1 1 1 1 1 1 1 
1 1 1 1 1 1 1 1 1 
1 1 1 1 1 1 1 1 1 
1 1 1 1 1 1 1 1 1 
1 1 1 1 1 1 1 1 1 
1 1 1 1 1 1 1 1 1 
1 1 1 1 1 1 1 1 
GroupIds 1 2006 float
0 0 0 0 0 0 0 0 0 
0 0 0 0 0 0 0 0 0 
0 0 0 0 0 0 0 0 0 
0 0 0 0 0 0 0 0 0 
0 0 0 0 0 0 0 0 0 
0 0 0 0 0 0 0 0 0 
0 0 0 0 0 0 0 0 0 
0 0 0 0 0 0 0 0 0 
0 0 0 0 0 0 0 0 0 
0 0 0 0 0 0 0 0 0 
0 0 0 0 0 0 0 0 0 
0 0 0 0 0 0 0 0 0 
0 0 0 0 0 0 0 0 0 
0 0 0 0 0 0 0 0 0 
0 0 0 0 0 0 0 0 0 
0 0 0 0 0 0 0 0 0 
0 0 0 0 0 0 0 0 0 
0 0 0 0 0 0 0 0 0 
0 0 0 0 0 0 0 0 0 
0 0 0 0 0 0 0 0 0 
0 0 0 0 0 0 0 0 0 
0 0 0 0 0 0 0 0 0 
0 0 0 0 0 0 0 0 0 
0 0 0 0 0 0 0 0 0 
0 0 0 0 0 0 0 0 0 
0 0 0 0 0 0 0 0 0 
0 0 0 0 0 0 0 0 0 
0 0 0 0 0 0 0 0 0 
0 0 0 0 0 0 0 0 0 
0 0 0 0 0 0 0 0 0 
0 0 0 0 0 0 0 0 0 
0 0 0 0 0 0 0 0 0 
0 0 0 0 0 0 0 0 0 
0 0 0 0 0 0 0 0 0 
0 0 0 0 0 0 0 0 0 
0 0 0 0 0 0 0 0 0 
0 0 0 0 0 0 0 0 0 
0 0 0 0 0 0 0 0 0 
0 0 0 0 0 0 0 0 0 
0 0 0 0 0 0 0 0 0 
0 0 0 0 0 0 0 0 0 
0 0 0 0 0 0 0 0 0 
0 0 0 0 0 0 0 0 0 
0 0 0 0 0 0 0 0 0 
0 0 0 0 0 0 0 0 0 
0 0 0 0 0 0 0 0 0 
0 0 0 0 0 0 0 0 0 
0 0 0 0 0 0 0 0 0 
0 0 0 0 0 0 0 0 0 
0 0 0 0 0 0 0 0 0 
0 0 0 0 0 0 0 0 0 
0 0 0 0 0 0 0 0 0 
0 0 0 0 0 0 0 0 0 
0 0 0 0 0 0 0 0 0 
0 0 0 0 0 0 0 0 0 
0 0 0 0 0 0 0 0 0 
0 0 0 0 0 0 0 0 0 
0 0 0 0 0 0 0 0 0 
0 0 0 0 0 0 0 0 0 
0 0 0 0 0 0 0 0 0 
0 0 0 0 0 0 0 0 0 
0 0 0 0 0 0 0 0 0 
0 0 0 0 0 0 0 0 0 
0 0 0 0 0 0 0 0 0 
0 0 0 0 0 0 0 0 0 
0 0 0 0 0 0 0 0 0 
0 0 0 0 0 0 0 0 0 
0 0 0 0 0 0 0 0 0 
0 0 0 0 0 0 0 0 0 
0 0 0 0 0 0 0 0 0 
0 0 0 0 0 0 0 0 0 
0 0 0 0 0 0 0 0 0 
0 0 0 0 0 0 0 0 0 
0 0 0 0 0 0 0 0 0 
0 0 0 0 0 0 0 0 0 
0 0 0 0 0 0 0 0 0 
0 0 0 0 0 0 0 0 0 
0 0 0 0 0 0 0 0 0 
0 0 0 0 0 0 0 0 0 
0 0 0 0 0 0 0 0 0 
0 0 0 0 0 0 0 0 0 
0 0 0 0 0 0 0 0 0 
0 0 0 0 0 0 0 0 0 
0 0 0 0 0 0 0 0 0 
0 0 0 0 0 0 0 0 0 
0 0 0 0 0 0 0 0 0 
0 0 0 0 0 0 0 0 0 
0 0 0 0 0 0 0 0 0 
0 0 0 0 0 0 0 0 0 
0 0 0 0 0 0 0 0 0 
0 0 0 0 0 0 0 0 0 
0 0 0 0 0 0 0 0 0 
0 0 0 0 0 0 0 0 0 
0 0 0 0 0 0 0 0 0 
0 0 0 0 0 0 0 0 0 
0 0 0 0 0 0 0 0 0 
0 0 0 0 0 0 0 0 0 
0 0 0 0 0 0 0 0 0 
0 0 0 0 0 0 0 0 0 
0 0 0 0 0 0 0 0 0 
0 0 0 0 0 0 0 0 0 
0 0 0 0 0 0 0 0 0 
0 0 0 0 0 0 0 0 0 
0 0 0 0 0 0 0 0 0 
0 0 0 0 0 0 0 0 0 
0 0 0 0 0 0 0 0 0 
0 0 0 0 0 0 0 0 0 
0 0 0 0 0 0 0 0 0 
0 0 0 0 0 0 0 0 0 
0 0 0 0 0 0 0 0 0 
0 0 0 0 0 0 0 0 0 
0 0 0 0 0 0 0 0 0 
0 0 0 0 0 0 0 0 0 
0 0 0 0 0 0 0 0 0 
0 0 0 0 0 0 0 0 0 
0 0 0 0 0 0 0 0 0 
0 0 0 0 0 0 0 0 0 
0 0 0 0 0 0 0 0 0 
0 0 0 0 0 0 0 0 0 
0 0 0 0 0 0 0 0 0 
0 0 0 0 0 0 0 0 0 
0 0 0 0 0 0 0 0 0 
0 0 0 0 0 0 0 0 0 
0 0 0 0 0 0 0 0 0 
0 0 0 0 0 0 0 0 0 
0 0 0 0 0 0 0 0 0 
0 0 0 0 0 0 0 0 0 
0 0 0 0 0 0 0 0 0 
0 0 0 0 0 0 0 0 0 
0 0 0 0 0 0 0 0 0 
0 0 0 0 0 0 0 0 0 
0 0 0 0 0 0 0 0 0 
0 0 0 0 0 0 0 0 0 
0 0 0 0 0 0 0 0 0 
0 0 0 0 0 0 0 0 0 
0 0 0 0 0 0 0 0 0 
0 0 0 0 0 0 0 0 0 
0 0 0 0 0 0 0 0 0 
0 0 0 0 0 0 0 0 0 
0 0 0 0 0 0 0 0 0 
0 0 0 0 0 0 0 0 0 
0 0 0 0 0 0 0 0 0 
0 0 0 0 0 0 0 0 0 
0 0 0 0 0 0 0 0 0 
0 0 0 0 0 0 0 0 0 
0 0 0 0 0 0 0 0 0 
0 0 0 0 0 0 0 0 0 
0 0 0 0 0 0 0 0 0 
0 0 0 0 0 0 0 0 0 
0 0 0 0 0 0 0 0 0 
0 0 0 0 0 0 0 0 0 
0 0 0 0 0 0 0 0 0 
0 0 0 0 0 0 0 0 0 
0 0 0 0 0 0 0 0 0 
0 0 0 0 0 0 0 0 0 
0 0 0 0 0 0 0 0 0 
0 0 0 0 0 0 0 0 0 
0 0 0 0 0 0 0 0 0 
0 0 0 0 0 0 0 0 0 
0 0 0 0 0 0 0 0 0 
0 0 0 0 0 0 0 0 0 
0 0 0 0 0 0 0 0 0 
0 0 0 0 0 0 0 0 0 
0 0 0 0 0 0 0 0 0 
0 0 0 0 0 0 0 0 0 
0 0 0 0 0 0 0 0 0 
0 0 0 0 0 0 0 0 0 
0 0 0 0 0 0 0 0 0 
0 0 0 0 0 0 0 0 0 
0 0 0 0 0 0 0 0 0 
0 0 0 0 0 0 0 0 0 
0 0 0 0 0 0 0 0 0 
0 0 0 0 0 0 0 0 0 
0 0 0 0 0 0 0 0 0 
0 0 0 0 0 0 0 0 0 
0 0 0 0 0 0 0 0 0 
0 0 0 0 0 0 0 0 0 
0 0 0 0 0 0 0 0 0 
0 0 0 0 0 0 0 0 0 
0 0 0 0 0 0 0 0 0 
0 0 0 0 0 0 0 0 0 
0 0 0 0 0 0 0 0 0 
0 0 0 0 0 0 0 0 0 
0 0 0 0 0 0 0 0 0 
0 0 0 0 0 0 0 0 0 
0 0 0 0 0 0 0 0 0 
0 0 0 0 0 0 0 0 0 
0 0 0 0 0 0 0 0 0 
0 0 0 0 0 0 0 0 0 
0 0 0 0 0 0 0 0 0 
0 0 0 0 0 0 0 0 0 
0 0 0 0 0 0 0 0 0 
0 0 0 0 0 0 0 0 0 
0 0 0 0 0 0 0 0 0 
0 0 0 0 0 0 0 0 0 
0 0 0 0 0 0 0 0 0 
0 0 0 0 0 0 0 0 0 
0 0 0 0 0 0 0 0 0 
0 0 0 0 0 0 0 0 0 
0 0 0 0 0 0 0 0 0 
0 0 0 0 0 0 0 0 0 
0 0 0 0 0 0 0 0 0 
0 0 0 0 0 0 0 0 0 
0 0 0 0 0 0 0 0 0 
0 0 0 0 0 0 0 0 0 
0 0 0 0 0 0 0 0 0 
0 0 0 0 0 0 0 0 0 
0 0 0 0 0 0 0 0 0 
0 0 0 0 0 0 0 0 0 
0 0 0 0 0 0 0 0 0 
0 0 0 0 0 0 0 0 0 
0 0 0 0 0 0 0 0 0 
0 0 0 0 0 0 0 0 0 
0 0 0 0 0 0 0 0 0 
0 0 0 0 0 0 0 0 0 
0 0 0 0 0 0 0 0 0 
0 0 0 0 0 0 0 0 0 
0 0 0 0 0 0 0 0 0 
0 0 0 0 0 0 0 0 0 
0 0 0 0 0 0 0 0 0 
0 0 0 0 0 0 0 0 0 
0 0 0 0 0 0 0 0 0 
0 0 0 0 0 0 0 0 
POINT_DATA 1148
SCALARS scalars float
LOOKUP_TABLE default
1.73472e-18 -0.0154515 6.93889e-18 1.73472e-18 -0.160014 -0.0317976 -0.19563 -1.73472e-18 3.46945e-18 
-0.232302 -0.0819403 -0.410935 -0.203738 -0.0644962 0 -3.46945e-18 -0.322277 0 
-0.285114 -0.312035 -0.0860423 6.93889e-18 -6.93889e-18 -0.597727 -0.432586 -0.441166 -0.693305 
-0.261306 -0.0765306 6.93889e-18 -0.475058 -0.229911 -0.619344 -0.102546 -0.0567699 0 
6.93889e-18 -0.837338 -0.712347 -0.401148 -0.963764 -0.110914 0 0 -0.352238 
-0.142382 -0.79063 -0.693701 -0.947509 -0.00382215 0 -1.13656 -0.950899 -0.69995 
-0.197148 -0.310839 -0.490568 -1.20376 0 -0.0626587 -1.38778e-17 -0.287235 -0.113008 
-0.461003 0 0 6.93889e-18 -1.02837 -0.63055 -1.10483 -0.852177 -1.27491 
4.33681e-19 0 -1.39923 -0.936346 -1.14226 -0.684234 -0.112605 -0.350473 -1.42014 
6.93889e-18 -6.93889e-18 -0.120317 -0.364397 6.93889e-18 -6.93889e-18 -1.22468 -0.555866 -0.848215 
-1.01124 -1.41976 -1.45527 -1.25052 -1.61919 -1.17468 -0.871933 -0.379823 -0.493889 
0 -0.136039 0 -1.69482 -1.53116 -0.0941377 6.93889e-18 0 -0.314857 
-0.60688 -0.959688 -1.58316 -1.64563 -1.80322 -1.36794 -1.1736 -1.96956 -1.19358 
-1.46669 -0.78763 -0.624281 -1.07109 -0.223893 -0.408216 -0.224782 -0.0715182 -1.38778e-17 
6.93889e-18 -1.8246 0 -3.46945e-18 -1.21431e-17 -0.255451 -3.46945e-18 -0.390366 -0.689772 
-0.44441 -0.398113 -0.897184 -1.40361 -1.89567 -1.69421 -2.03535 -1.10546 -2.21191 
-2.14427 -1.33813 -1.60789 -0.80691 -0.568423 -1.14932 -1.33199 3.46945e-18 0 
-0.351742 -0.191704 -1.04083e-17 -0.0074055 0 -1.97847 -0.22972 -5.20417e-18 6.93889e-18 
-0.190149 -0.625571 -0.443503 -0.30498 -0.208016 -0.838945 -1.41046 -1.63106 -1.16879 
-1.94021 -2.13671 -2.20391 -2.31367 -1.46774 -1.79128 -0.694852 -0.445121 -0.912738 
-1.25409 -0.170896 -0.0219758 0 0 0 -2.1258 -0.104494 3.46945e-18 
1.38778e-17 6.93889e-18 6.93889e-18 -0.391737 -0.496663 -0.22331 -0.0803384 -0.0259403 0 
-0.818779 -0.548803 -1.38288 -1.62643 -1.86812 -1.08043 -2.02722 -2.29618 -2.07659 
-2.41843 -1.62545 -1.90747 -0.59645 -0.289654 -0.111122 -0.927365 -1.19097 -1.45197 
0 -6.93889e-18 0 -2.3651 -2.12668 6.93889e-18 -6.93889e-18 -0.163944 -0.294748 
-0.0598646 0 0 0 -0.849329 -0.662923 -0.506906 -0.229903 -1.38113 
-1.89027 -1.65419 -1.18764 -0.862799 -2.15948 -2.41444 -1.8484 -0.283897 -0.629312 
-0.0307148 3.46945e-18 0 -1.04205 -0.868415 -1.26395 -1.5113 -2.54453 -2.31056 
-2.217 -6.93889e-18 0 0 -6.93889e-18 -3.46945e-18 0 -0.447928 -0.500823 
-0.290611 -0.0118333 1.38778e-17 0 -1.45794 -2.06489 -1.87555 -1.77646 -1.23102 
-1.05585 -0.568586 -0.834619 -2.27903 -2.48711 -2.11477 -1.84986 -0.22896 3.46945e-18 
3.46945e-18 -0.782274 -0.887177 -0.517013 -3.46945e-18 0 -1.13048 -1.53795 -2.66152 
-2.36689 -2.63126 -0.233034 -0.348762 0 0 -0.0148569 0 -1.57331 
-2.02504 -2.19858 -2.01164 -1.87571 -1.26571 -1.06189 -0.608218 -0.315396 -0.773282 
-2.39492 -2.5585 -2.3221 -2.08654 -1.81254 -2.06655 -0.282579 -0.0738128 6.93889e-18 
-3.46945e-18 -0.756495 -0.438407 -1.06765 -1.32759 -1.60308 -2.68894 -2.72407 -2.66586 
-0.209492 0 0 -0.0272378 -1.85861 -1.61019 -1.29863 -2.23524 -2.11297 
-0.986798 -0.485071 -0.25453 -0.711225 -0.550338 -2.45411 -2.5739 -2.31498 -2.03018 
-0.192353 0 6.93889e-18 -6.93889e-18 -0.810077 -0.540735 -0.334716 -1.28823 -1.094 
-1.89956 -1.58662 -1.35381 -2.68562 -2.55592 -2.42309 -2.45702 -2.50474 -2.49747 
0 -0.0945941 3.46945e-18 0 -2.05925 -1.87712 -1.65462 -1.37835 -1.13702 
-2.42012 -2.28065 -0.886626 -0.299043 -0.586729 -0.438372 -2.64717 -2.28085 -2.25352 
-2.77556e-17 -0.157422 -0.852605 -0.559908 -0.327572 -1.22166 -1.95989 -1.83372 -1.75703 
-1.46035 -2.49484 -2.23081 -2.17241 -2.15826 -2.41883 -2.2754 -0.0620206 -6.93889e-18 
-2.14368 -1.93345 -1.69975 -1.45998 -1.13919 -2.51189 -2.50769 -2.44729 -0.745817 
-0.143264 -0.324103 -0.388391 -2.36453 -2.08763 1.38778e-17 -0.0338705 -1.01506 -0.813289 
-0.489827 -0.323014 -1.24561 -1.8494 -1.64493 -1.46485 -1.52116 -1.88519 -2.10481 
-1.9413 -1.84991 -1.74083 -1.97618 -2.1826 -2.12074 6.93889e-18 0 -2.26582 
-1.98426 -1.74697 -1.4663 -1.24183 -0.893072 -2.18457 -2.49542 -2.21873 -2.43828 
-2.51024 -0.599609 -0.1615 0 -1.38778e-17 -0.35292 -0.163275 3.46945e-18 0 
-0.186857 -3.46945e-18 3.46945e-18 -1.01137 -0.649244 -0.924483 -0.334787 -0.168493 -1.38375 
-1.14928 -1.77935 -1.55579 -1.3129 -1.13066 -1.59891 -1.91365 -1.59198 -2.07753 
-1.52264 -1.39703 -1.53095 -1.79087 -2.00456 -2.00362 -2.58114 -2.28692 -2.00173 
-1.7871 -1.57863 -1.42379 -1.05096 -0.672609 -2.11248 -2.31225 -1.86036 -2.09555 
-2.13681 -2.33603 0 0 -1.38778e-17 -0.496585 -0.261737 -0.127733 -1.38778e-17 
1.38778e-17 0 -0.837022 -0.41198 -0.784929 -1.08718 -1.02928 -0.14011 -0.125436 
-1.38778e-17 0 -1.16953 -1.7319 -1.47431 -1.30095 -1.05314 -1.0933 -0.908796 
-0.844836 -0.910279 -1.2909 -1.60548 -1.3811 -1.2621 -1.33833 -1.23703 -1.11639 
-1.2588 -1.31957 -1.71464 -1.64733 -2.40923 -2.58178 -2.30786 -2.07229 -1.8189 
-1.62239 -1.68044 -1.43008 -1.18345 -0.972401 -0.731993 -1.7505 -1.64856 -2.0467 
-0.586327 -0.456501 0 1.38778e-17 -0.214972 6.93889e-18 -0.525506 -0.105173 -0.283856 
-0.779885 -0.611475 6.93889e-18 1.38778e-17 -1.38778e-17 -1.62193 -1.51683 -1.48666 -1.23989 
-1.28799 -1.15563 -0.944146 -0.758345 -0.62699 -0.641877 -0.726288 -1.17772 -1.38102 
-1.05662 -1.05641 -1.19126 -1.06065 -1.00892 -0.981929 -0.88591 -0.958243 -1.26657 
-0.929466 -2.35703 -2.56689 -2.37439 -2.20866 -1.99264 -1.81682 -1.59584 -1.30749 
-1.09151 -0.680656 -0.821769 -1.63301 -1.25095 -2.04191 -1.75497 -0.527895 1.38778e-17 
-0.376238 -0.0324835 -0.132864 0 -0.380734 -0.197484 -1.38778e-17 -1.38778e-17 -0.0895718 
-0.140442 -0.0511817 -0.547364 -1.42578 -1.41827 -1.15585 -0.899548 -0.645873 -0.471188 
-0.36791 -0.427978 -0.370028 -1.03148 -0.798884 -0.833536 -0.743074 -0.745524 -0.647815 
-0.638795 -0.888333 -1.13163 -0.6003 -2.01836 -2.36764 -2.62183 -2.4677 -2.24962 
-2.09339 -2.07833 -1.83346 -1.57946 -1.3077 -1.05281 -0.588362 -0.817663 -1.38361 
-1.13705 -0.954585 -0.842434 -1.7325 -1.48944 -0.371916 0 1.38778e-17 -6.93889e-18 
-6.93889e-18 -0.096612 -0.281547 -0.09563 6.93889e-18 -6.93889e-18 6.93889e-18 -6.93889e-18 0 
-3.46945e-18 0 0 0 -1.23452 -1.26282 -1.20517 -0.969369 -0.818606 
-0.560237 -0.289719 -0.184227 -0.128416 -0.158147 -0.745394 -0.492916 -0.478623 -0.608032 
-0.439617 -0.514973 -0.42533 -0.445996 -0.357161 -0.559761 -0.91557 -0.298572 -2.28285 
-1.7003 -1.97459 -2.56686 -2.52849 -2.30094 -2.31115 -2.03834 -1.81937 -1.54223 
-1.21404 -1.01712 -0.576418 -0.943604 -0.671178 -1.08219 -0.71445 -0.465209 -0.52255 
-1.36172 -0.405187 0 -0.246325 -1.38778e-17 -3.46945e-18 -0.0260721 -0.07666 0 
0 0 -1.03725 -1.12498 -0.917325 -0.683037 -0.757116 -0.559127 -0.381737 
-0.221847 0 -6.93889e-18 6.93889e-18 -1.38778e-17 0 0 0 0 
0 -0.290916 -0.289424 -0.178085 -0.354515 -0.141535 -0.322436 -0.229871 -0.0380002 
-0.276958 -0.368893 -0.495597 -0.683431 -0.0421439 -2.23833 -2.52633 -1.69236 -1.94715 
-2.55971 -2.24333 -2.44895 -2.00726 -1.70021 -1.43346 -1.14811 -1.04391 -0.797051 
-0.407884 -0.987499 -0.852771 -0.649006 -0.453749 -0.187688 -1.49972 -1.22064 0 
-3.46945e-18 0 -0.0941888 0 -0.827363 -0.797656 -0.81484 -0.596096 -0.310959 
-0.359287 -0.140504 -1.38778e-17 1.38778e-17 -0.0986994 0 0 6.93889e-18 -0.094089 
6.93889e-18 2.77556e-17 -1.38778e-17 -0.0284317 0 -6.93889e-18 0 0 -0.149391 
-0.372879 -0.544946 0 -8.67362e-19 0 -2.17627 -2.50236 -1.73185 -1.88106 
-2.33542 -2.09441 -1.76655 -1.52052 -1.3392 -1.19443 -0.947648 -0.54399 -0.601919 
-0.352036 -1.03422 -0.840273 -0.509811 -0.327156 -0.0335769 -1.38778e-17 -1.66911 -1.40798 
-1.11653 6.93889e-18 0 -0.102379 -0.62786 -0.485018 -0.49203 -0.589828 -0.524495 
-0.281647 1.38778e-17 0 6.93889e-18 0 6.93889e-18 1.38778e-17 -1.38778e-17 0 
1.04083e-17 -3.46945e-18 -0.0546336 -0.300221 -0.374752 -2.36311 -2.07204 -2.33053 -1.76953 
-1.77866 -1.85896 -2.14988 -1.89113 -1.70012 -1.50021 -1.35008 -1.17533 -0.83243 
-0.497101 -0.331984 -0.687818 -0.968626 -0.360069 -0.258784 0 -3.46945e-18 -0.0998047 
-3.46945e-18 -1.62864 -1.24023 -1.52413 6.93889e-18 -6.93889e-18 -0.127353 -0.273105 -0.34912 
-0.144707 -0.271554 -0.289912 -0.254096 0 -6.93889e-18 0 6.93889e-18 0 
0 -0.112782 -0.160975 -2.11225 -1.79166 -1.73565 -1.7429 -1.94245 -1.8689 
-1.65232 -1.3953 -1.10673 -0.786578 -0.416318 -0.511357 -0.638566 -0.933643 -0.330387 
-0.0782347 0 5.20417e-18 -1.66094 -1.45141 -1.08962 -1.27239 1.38778e-17 -0.013107 
1.73472e-18 -0.069664 -0.103888 -0.0865111 6.93889e-18 -1.38778e-17 0 -0.00735801 1.38778e-17 
0 0 1.38778e-17 -6.93889e-18 -1.80854 -1.44659 -1.60147 -1.63435 -1.45524 
-1.60125 -1.68997 -1.53592 -1.63872 -1.40156 -1.24116 -1.05913 -0.788222 -0.986465 
-0.59757 -0.30719 -0.636055 -0.871873 -0.45034 -0.22634 6.93889e-18 -6.93889e-18 1.73472e-18 
0 -6.93889e-18 -1.12456 0 1.38778e-17 -0.136141 0 0 0 
6.93889e-18 0 0 8.67362e-19 8.67362e-19 0 0 -1.36626 -1.23066 
-1.04143 -1.33338 -1.41628 -1.15512 -1.11759 -1.54432 -1.25689 -1.44094 -1.24922 
-1.09116 -0.937666 -0.78275 -0.406716 -0.625211 -0.840756 -0.429136 -0.201823 -6.93889e-18 
6.93889e-18 -0.967429 0 -0.0384058 -1.1332 -0.775071 -0.672213 -0.825369 -0.909648 
-1.09614 -0.813767 -0.81347 -0.852553 -0.875957 -1.29784 -0.999503 -1.1823 -1.08503 
-0.775554 -0.904232 -0.647403 -0.52487 -0.592362 -0.17122 -0.422975 -0.47101 -0.626025 
-0.19535 6.93889e-18 -1.38778e-17 0 0 0 -0.980963 -0.560883 -0.361682 
-0.674442 -0.460231 -0.768667 -0.488798 -0.513385 -0.56203 -0.510856 -0.575586 -0.649386 
-0.917738 -0.670555 -0.641443 -0.426169 -0.447005 -0.383426 -0.300467 -0.426211 -0.0331219 
-0.247012 0 -0.359116 -0.198223 -0.283856 -0.365984 6.93889e-18 1.38778e-17 6.93889e-18 
6.93889e-18 -0.194465 -0.101419 -0.199031 -0.405566 -0.290631 -0.177734 -0.234047 -0.362993 
-0.199709 -0.178738 -0.389399 -0.204885 -0.410464 -0.546267 -0.3795 -0.454054 -0.420103 
-0.368436 -0.222302 -0.123733 -0.242771 -0.0726349 -3.46945e-18 -0.236921 3.46945e-18 0 
-3.46945e-18 0 -0.0865534 -0.102377 -0.109653 1.38778e-17 -0.134233 -0.161632 1.38778e-17 
-0.13384 1.38778e-17 6.93889e-18 -6.93889e-18 -3.46945e-18 -0.0243195 -0.0933704 1.38778e-17 -2.77556e-17 
1.38778e-17 1.38778e-17 -0.15894 0 1.38778e-17 1.38778e-17 6.93889e-18 0 -1.38778e-17 
-0.264561 -6.93889e-18 -0.0402037 -0.138561 -0.217759 -0.134446 -0.226996 -0.16628 -0.0564542 
1.38778e-17 -3.46945e-18 -6.93889e-18 0 0 -6.93889e-18 6.93889e-18 0 -0.039855 
-3.46945e-18 -3.46945e-18 -5.20417e-18 -1.38778e-17 -6.93889e-18 3.46945e-18 -3.46945e-18 0 -1.38778e-17 
0 1.73472e-18 0 0 0 3.46945e-18 0 -3.46945e-18 3.46945e-18 
3.46945e-18 3.46945e-18 6.93889e-18 -0.0421723 -0.0181309 0 0 0 0 
0 0 0 3.46945e-18 0 
