# vtk DataFile Version 4.2
3D Slicer output. SPACE=LPS
ASCII
DATASET POLYDATA
POINTS 1567 float
6.19216 -85.9581 17.0099 6.30834 -85.8798 17.0761 6.3724 -86.0178 17.0254 
6.01811 -86.0629 16.9008 5.98133 -85.9086 16.968 6.05214 -85.7797 17.0914 
6.23352 -86.1467 16.9495 6.20741 -85.8347 17.0898 6.4713 -85.891 17.1059 
6.22286 -85.7675 17.1488 6.2592 -85.7736 17.1523 6.49726 -86.0468 17.0481 
6.43841 -86.1614 17.0076 5.89145 -86.1988 16.8295 5.75489 -86.0503 16.8156 
5.90691 -85.986 16.8864 5.7901 -85.7422 17.0298 5.8271 -85.7448 17.0417 
5.72102 -85.8885 16.8853 5.90671 -85.7438 17.0696 6.02296 -85.7383 17.1201 
6.13312 -85.7528 17.1359 6.39743 -86.3365 16.9782 6.59034 -86.0088 17.091 
6.63978 -85.9296 17.1462 6.46537 -85.8148 17.164 6.57386 -85.8499 17.1785 
6.32504 -85.7851 17.1586 6.59463 -86.1543 17.0602 5.55254 -86.148 16.7383 
5.63082 -86.3837 16.75 5.4784 -86.0115 16.7579 5.60032 -85.753 16.9664 
5.42104 -85.8582 16.8425 5.52153 -85.7659 16.9386 6.04297 -86.6748 16.8748 
6.68918 -86.5548 17.0638 6.8475 -86.2015 17.142 7.02797 -86.3759 17.1705 
6.7474 -86.0473 17.1488 6.7746 -85.9162 17.2346 6.62222 -85.8641 17.1878 
5.26246 -86.1833 16.6988 5.21418 -86.4643 16.6575 5.38977 -86.6837 16.6928 
5.28618 -85.9815 16.7567 5.24538 -85.9369 16.8019 5.30123 -85.8694 16.8518 
5.36669 -85.8274 16.878 5.41305 -85.7941 16.9016 5.71068 -86.9762 16.8061 
6.32592 -86.9607 16.9973 6.81935 -86.8147 17.1276 7.23296 -86.5809 17.2264 
6.98825 -86.0255 17.2598 7.21834 -86.1963 17.2653 7.51427 -86.3743 17.3166 
6.78084 -85.9128 17.2407 6.77255 -85.9104 17.2386 6.75122 -85.9042 17.2306 
5.01329 -86.1892 16.717 5.15597 -86.0903 16.7493 4.98178 -86.2202 16.7102 
4.95419 -86.3872 16.6621 4.99026 -86.688 16.6411 5.18759 -86.9276 16.662 
5.21972 -85.9982 16.765 5.34417 -87.1739 16.7237 5.75324 -87.3331 16.882 
6.24143 -87.2429 17.0272 6.74265 -87.1517 17.1749 7.08899 -87.0692 17.257 
7.40933 -86.8524 17.2967 7.71432 -86.5625 17.3564 6.95986 -85.9645 17.2937 
7.02764 -85.9746 17.3067 7.24136 -86.0034 17.3571 7.30817 -86.0145 17.3754 
7.6494 -86.1723 17.4054 7.92774 -86.3456 17.427 4.89504 -86.3324 16.6922 
4.78642 -86.5475 16.6726 4.82407 -86.4012 16.696 4.79398 -86.5627 16.6669 
4.79558 -86.9276 16.6851 4.76891 -86.7658 16.6893 4.86252 -87.0675 16.6721 
5.07887 -87.1208 16.6482 5.14741 -87.3067 16.6888 5.39001 -87.4996 16.8072 
5.72139 -87.5417 16.929 6.17127 -87.5515 17.0967 6.64407 -87.3975 17.2111 
7.04338 -87.4442 17.3665 7.31254 -87.1633 17.3368 7.6661 -86.9283 17.376 
7.82918 -86.7419 17.3919 7.51824 -87.0811 17.3648 8.08042 -86.5388 17.4411 
7.36219 -86.0207 17.3888 7.67892 -86.0561 17.4687 7.88597 -86.09 17.4953 
7.90479 -86.1968 17.4581 8.06197 -86.1819 17.4947 8.25562 -86.3179 17.5044 
4.78245 -86.5643 16.6722 4.77833 -86.6126 16.6742 4.70269 -86.81 16.7161 
4.62226 -87.3977 16.8447 4.54205 -87.014 16.8386 4.8312 -87.4332 16.7143 
4.97243 -87.2798 16.6599 5.0422 -87.5561 16.7159 5.23717 -87.7468 16.8312 
5.59744 -87.815 17.0102 6.10067 -87.7851 17.1794 6.67025 -87.7393 17.3771 
6.68869 -87.5539 17.2858 7.38545 -87.4136 17.4559 7.19973 -87.7293 17.5763 
7.31249 -87.5566 17.5057 7.46233 -87.2527 17.3961 7.70992 -87.1236 17.4481 
7.9048 -86.9202 17.4496 8.15601 -86.7475 17.4701 7.56876 -87.1961 17.4009 
8.44806 -86.5283 17.5278 7.85898 -86.0665 17.5012 7.92592 -86.0698 17.5131 
8.05334 -86.0769 17.5388 8.20975 -86.1235 17.5449 8.36873 -86.1578 17.5726 
8.56376 -86.2677 17.5913 4.53765 -86.852 16.8384 4.42724 -87.3885 17.0308 
4.43641 -87.2162 16.9583 4.49432 -87.5842 17.0438 4.64614 -87.8103 16.9739 
4.75353 -87.7011 16.8104 4.44568 -87.0282 16.9443 4.47294 -86.9382 16.9111 
4.37308 -87.1322 17.0258 4.85977 -87.6692 16.7403 4.95217 -87.7775 16.7662 
5.06614 -87.7487 16.7663 5.08203 -87.9562 16.8943 5.28289 -87.9118 16.929 
5.28657 -88.1516 17.0897 5.56796 -88.2331 17.2653 5.87925 -88.0306 17.2498 
6.28851 -87.9203 17.3368 6.58298 -87.9926 17.5096 6.89488 -87.9414 17.6034 
7.48083 -87.3556 17.4474 7.5636 -87.396 17.5098 7.65044 -87.5529 17.649 
7.14498 -88.0457 17.8038 7.52828 -87.8496 17.8147 7.58621 -87.2833 17.4467 
7.75056 -87.2879 17.5391 7.91314 -87.1135 17.5239 8.10088 -86.9697 17.5157 
8.2496 -86.8743 17.516 8.42314 -86.8068 17.533 8.63674 -86.6471 17.5662 
8.71931 -86.4627 17.6034 8.141 -86.0746 17.5545 8.25098 -86.0724 17.5801 
8.36112 -86.0702 17.6114 8.48611 -86.0938 17.6228 8.66988 -86.0544 17.6752 
8.88406 -86.2875 17.673 4.36532 -87.463 17.146 4.35412 -87.3326 17.1041 
4.3929 -87.5605 17.1597 4.36223 -87.246 17.0632 4.38899 -87.6952 17.2322 
4.48135 -87.8608 17.1989 4.62191 -88.0317 17.1156 4.74488 -88.0946 17.0389 
4.76671 -87.9076 16.8954 4.83264 -87.8288 16.8052 4.8988 -87.9164 16.8542 
4.88967 -87.9702 16.8891 4.88821 -88.0275 16.9268 4.91519 -88.1733 17.0249 
5.07854 -88.2103 17.0603 5.12925 -88.3915 17.1991 5.31527 -88.511 17.3583 
5.60601 -88.5709 17.543 5.85096 -88.3513 17.475 6.24477 -88.1843 17.5163 
6.69959 -88.1914 17.7233 7.97646 -87.8649 18.0144 8.03144 -87.2587 17.6246 
8.10916 -87.5374 17.8026 6.88023 -88.3995 18.017 7.4656 -88.1656 18.0806 
8.24731 -87.0151 17.5583 8.27423 -86.9949 17.5575 8.31379 -86.9743 17.5598 
8.43412 -86.9185 17.5499 8.54123 -86.8533 17.5477 8.63748 -86.7938 17.5624 
8.88643 -86.7102 17.633 8.91269 -86.6911 17.6408 8.45286 -86.0583 17.6331 
8.59453 -86.0295 17.6728 8.67812 -86.0167 17.6947 8.94385 -85.9999 17.7309 
9.14027 -86.1819 17.7419 9.17761 -86.4983 17.7324 4.36696 -87.8826 17.3328 
4.4338 -88.0867 17.3479 4.56655 -88.2129 17.2578 4.77228 -88.3195 17.1519 
4.86886 -87.966 16.8894 4.86813 -87.9801 16.8997 4.87206 -87.9531 16.8782 
4.94429 -88.3756 17.1552 5.00381 -88.5914 17.3147 5.33809 -88.7136 17.5303 
5.27525 -88.6635 17.4466 5.16287 -88.7102 17.4498 5.48204 -88.8191 17.706 
5.70564 -88.7517 17.7476 5.92697 -88.6371 17.7509 6.09014 -88.4488 17.6657 
6.39321 -88.4664 17.8355 8.28139 -87.7042 17.973 7.77035 -88.1215 18.1795 
7.9859 -88.1699 18.3306 8.46413 -88.0209 18.3347 8.42204 -87.8304 18.1302 
8.17275 -87.1263 17.5925 8.07417 -87.2606 17.6308 8.11609 -87.5281 17.7978 
8.12454 -87.5389 17.8049 6.52433 -88.7125 18.1764 6.92839 -88.6215 18.3066 
7.13501 -88.4255 18.1842 7.32902 -88.4588 18.3487 7.65148 -88.3119 18.3464 
9.18933 -86.7137 17.7236 8.98965 -86.7038 17.6635 8.90858 -86.701 17.6381 
8.92296 -86.7003 17.642 8.91468 -86.6998 17.6395 8.90449 -85.9677 17.7427 
8.9622 -85.951 17.7492 9.0194 -85.9346 17.7427 9.13278 -85.951 17.7521 
9.26437 -86.0452 17.785 9.39941 -86.3039 17.7876 9.33141 -86.7123 17.7453 
9.40509 -86.6993 17.7572 4.28009 -88.1262 17.5102 4.32123 -88.3757 17.548 
4.56925 -88.5294 17.3805 4.67617 -88.4075 17.2438 4.77199 -88.5285 17.2693 
4.81611 -88.7432 17.4043 4.82719 -88.7085 17.3788 4.93034 -88.8549 17.5104 
5.19721 -88.8975 17.6424 5.37482 -89.0676 17.8996 5.61805 -88.9041 17.8479 
5.84567 -88.8725 17.9141 6.09363 -88.7813 17.9636 6.15966 -88.6183 17.854 
6.27877 -88.6939 17.9993 8.32783 -87.6629 17.9358 8.55212 -87.7116 18.059 
7.86585 -88.402 18.6073 8.30414 -88.2853 18.6456 8.70601 -88.1612 18.5823 
8.76338 -87.8126 18.2114 8.92282 -87.9714 18.3971 9.39163 -86.7119 17.7543 
9.73962 -87.7115 18.1758 9.52217 -87.687 18.1902 8.54918 -87.7081 18.0539 
8.56754 -87.7081 18.0591 8.92861 -87.6922 18.1249 9.22212 -87.6796 18.1622 
9.3141 -87.6798 18.1705 6.21756 -88.8856 18.1776 6.38344 -88.9532 18.412 
6.72357 -88.838 18.4762 7.1849 -88.7038 18.6172 7.53756 -88.507 18.5571 
9.07212 -85.921 17.7486 9.13616 -85.9043 17.7694 9.16879 -85.9037 17.7685 
9.20743 -85.9133 17.7878 9.10715 -85.9117 17.7557 9.30784 -85.9272 17.8318 
9.42323 -86.0506 17.8323 9.70579 -86.1289 17.8444 9.65578 -86.441 17.8 
9.40094 -86.7113 17.7537 9.41358 -86.7111 17.7554 9.67584 -86.7137 17.7779 
9.68969 -86.6956 17.783 4.1804 -88.2654 17.6414 4.2763 -88.7169 17.7082 
4.20632 -88.4841 17.686 4.38306 -88.7695 17.6345 4.66798 -88.7065 17.4029 
4.55872 -88.7959 17.513 4.79449 -88.6909 17.3672 4.75807 -88.8734 17.5164 
4.71168 -88.9644 17.5839 4.73831 -89.0592 17.6577 4.98817 -89.1349 17.7998 
5.19425 -89.3099 18.1043 5.36395 -89.211 18.0451 5.44748 -89.1532 18.0115 
5.65868 -89.0207 17.9719 5.55551 -89.1287 18.0349 6.0157 -88.9344 18.0601 
5.81257 -89.0566 18.0986 7.61606 -88.6434 18.8894 8.10807 -88.5129 19.0425 
8.5027 -88.4221 19.0471 8.71561 -88.317 18.8577 8.9889 -88.2294 18.7473 
9.03027 -88.102 18.5646 8.81115 -87.701 18.11 9.09383 -87.7703 18.236 
9.31714 -87.9784 18.4243 9.7221 -87.7088 18.1768 9.73263 -87.7156 18.1831 
9.81615 -87.7283 18.175 10.384 -87.6497 17.9336 10.3915 -87.6409 17.9237 
9.69646 -86.7144 17.78 9.37862 -87.7533 18.2449 9.53756 -87.6885 18.1902 
9.59548 -87.8495 18.2969 9.63511 -87.6986 18.1842 6.05414 -89.0013 18.1997 
6.04107 -89.116 18.4158 6.20586 -89.1321 18.5834 6.47482 -89.0553 18.655 
6.85069 -88.924 18.7253 7.08966 -88.9205 18.9806 9.15842 -85.8919 17.7732 
9.21058 -85.8892 17.8063 9.17762 -85.8943 17.7854 9.25683 -85.8807 17.8371 
9.29996 -85.8769 17.8595 9.44926 -85.8856 17.8875 9.77071 -85.8568 17.8955 
9.89769 -86.3554 17.8215 10.0327 -86.2302 17.8467 10.0871 -86.0162 17.8682 
9.88371 -86.5287 17.806 9.915 -86.7311 17.7943 9.94327 -86.7041 17.8017 
4.13985 -88.8071 17.8567 4.18736 -88.9348 17.8598 4.33956 -89.1128 17.8064 
4.53049 -89.0363 17.6719 4.68221 -88.8292 17.4844 4.78218 -88.7242 17.3907 
4.65873 -88.8615 17.5175 4.63597 -88.9324 17.5695 4.61933 -89.1989 17.7524 
4.75978 -89.2222 17.793 4.86852 -89.2827 17.8996 4.93497 -89.4023 18.0897 
5.1497 -89.5151 18.4039 5.34841 -89.3041 18.1578 5.27391 -89.3922 18.2594 
5.47077 -89.2204 18.1111 5.67825 -89.0993 18.0661 5.62104 -89.191 18.1671 
5.9639 -89.0114 18.1227 5.66609 -89.2922 18.4007 5.92108 -89.0885 18.2347 
7.51015 -88.8042 19.2245 7.84212 -88.6533 19.1807 7.89965 -88.6829 19.4463 
8.41556 -88.5142 19.4977 8.87762 -88.4209 19.2088 9.01839 -88.3368 18.9568 
9.24547 -88.2836 18.82 9.21928 -88.1572 18.6348 9.4782 -88.1958 18.6246 
9.75383 -88.0799 18.4344 9.84342 -87.8832 18.274 9.91451 -87.7516 18.1711 
[...]
POINT_DATA 1567
SCALARS scalars float
LOOKUP_TABLE default
-0.237508 -0.126554 -0.257634 -0.394037 -0.228031 -0.0521309 -0.423426 -0.0901772 -0.104325 
0 0 -0.251458 -0.376006 -0.548055 -0.387229 -0.334722 -1.38778e-17 6.93889e-18 
-0.225772 0 6.93889e-18 -3.46945e-18 -0.549709 -0.184988 -0.088556 -6.93889e-18 6.93889e-18 
-6.93889e-18 -0.319403 -0.351533 -0.5468 -0.232143 1.38778e-17 -0.110341 -6.93889e-18 -0.964268 
-0.668578 -0.290309 -0.425429 -0.16328 -0.00697915 -6.93889e-18 -0.241221 -0.317057 -0.546124 
-0.0774716 6.93889e-18 0 0 0 -0.887296 -1.14399 -0.884504 -0.592415 
-0.0697524 -0.213774 -0.355478 0 0 -8.67362e-19 -3.46945e-18 0 -6.93889e-18 
-0.140822 -0.219888 -0.39055 0 -0.474982 -0.865054 -1.38114 -1.22118 -1.08347 
-0.832529 -0.516283 -6.93889e-18 0 -3.46945e-18 -3.46945e-18 -0.13213 -0.285054 -1.38778e-17 
0 1.38778e-17 -0.012776 3.46945e-18 0 -0.0412023 -0.228885 -0.253081 -0.476291 
-0.82136 -1.29781 -1.47807 -1.45763 -1.14597 -0.875286 -0.679448 -1.04096 -0.471278 
-6.93889e-18 0 -0.0245655 -0.13506 -0.114812 -0.254663 0 0 0 
-0.319074 -0.304635 -0.0807943 -0.0890549 -0.116702 -0.319987 -0.715388 -1.24664 -1.81021 
-1.62231 -1.38323 -1.72802 -1.53617 -1.21523 -1.06001 -0.846369 -0.674524 -1.14747 
-0.475753 -3.46945e-18 0 -6.93889e-18 -0.0551941 -0.0964777 -0.229659 -2.77556e-17 -0.471465 
-0.429621 -0.53785 -0.299871 -0.184581 -5.55112e-17 -2.77556e-17 2.77556e-17 -0.0693073 -0.0298375 
-0.14075 -0.190002 -0.391372 -0.405241 -0.69669 -1.0287 -1.46068 -1.76633 -1.98827 
-1.31394 -1.34498 -1.49959 -2.07813 -1.82934 -1.23042 -1.21976 -1.03587 -0.89033 
-0.800762 -0.746727 -0.616147 -0.448462 -6.93889e-18 6.93889e-18 0 -0.0433626 -0.0411894 
-0.311358 2.77556e-17 0 0 0 -5.55112e-17 -0.511767 -0.304251 -0.150284 
-0.134824 -0.0811124 -1.73472e-18 1.73472e-18 0 -0.0303711 -0.188765 -0.238917 -0.454426 
-0.787196 -1.00906 -1.41468 -1.90505 -1.84605 -1.18103 -1.4777 -2.153 -2.20242 
-0.939225 -0.920599 -0.902425 -0.857525 -0.805845 -0.760576 -0.724011 -0.711111 0 
6.93889e-18 0 -0.0467877 -0.269307 -0.585236 -5.55112e-17 -2.77556e-17 -0.385026 -0.136646 
6.93889e-18 3.46945e-18 3.46945e-18 -0.0524496 -0.144445 -0.531934 -0.44468 -0.341193 -0.732525 
-0.952573 -1.15925 -1.28864 -1.63026 -1.6764 -2.15195 -2.23154 -2.09148 -1.84386 
-1.04785 -1.18282 -1.46763 -1.47945 -1.87364 -2.29749 -2.44905 -2.58051 -2.39719 
-0.79723 -0.740871 -0.719987 -0.722395 -0.720122 0 0 1.73472e-18 -0.0468453 
-0.167739 -0.452959 -0.830044 -0.835818 -5.55112e-17 -0.624443 -0.302722 -0.226968 -0.102356 
-3.46945e-18 6.93889e-18 -0.155637 -0.452962 -0.740854 -0.918221 -1.1505 -1.39405 -1.41374 
-1.57789 -1.62904 -1.71792 -2.55879 -2.45327 -2.3293 -1.87671 -2.10487 -0.844662 
-1.9264 -1.86724 -1.713 -1.71573 -1.7582 -1.80302 -1.82088 -1.59864 -1.85663 
-2.18364 -2.65963 -2.66853 1.73472e-18 0 -0.0183366 -0.0267328 3.46945e-18 -0.063633 
-0.21545 -0.357108 -0.656127 -0.846522 -0.849575 -0.924683 -0.910503 0 0 
0 -0.385087 -0.149731 -0.214088 3.46945e-18 -6.93889e-18 -6.93889e-18 -0.0715914 -0.364756 
-0.674567 -0.811386 -0.867229 -1.01843 -0.9696 -1.369 -1.21555 -2.92298 -2.84585 
-2.76733 -2.59091 -2.48562 -2.29993 -1.74691 -1.888 -2.17489 -1.92071 -1.93027 
-1.95678 -1.94492 -1.93694 -0.930577 -1.92001 -1.8713 -2.05866 -1.89657 -1.46978 
-1.57432 -1.79982 -2.06379 -2.41637 -2.67463 0 0 0 -3.46945e-18 
-6.93889e-18 -0.0592628 -0.0920368 -0.607953 -0.498108 -0.291309 -0.778363 -0.982935 -0.959189 
0 -0.49772 -0.275955 -0.127458 0 0 -6.93889e-18 0 -0.0201452 
-0.162337 -0.299642 -0.430728 -0.771229 -0.837638 -0.808977 -0.935069 -1.0877 -1.0946 
-1.35577 -1.22533 -1.37793 -3.11304 -3.05392 -3.22211 -3.09745 -2.86839 -2.67897 
-2.59357 -2.40108 -2.46511 -2.33554 -2.12748 -1.99693 -2.00282 -1.9469 -2.0403 
-2.0456 -2.04945 -1.78578 -1.78901 -1.72442 -1.58863 -1.47704 -0.990795 -1.70037 
-1.46538 -2.17486 -2.22692 -2.72252 0 0 6.93889e-18 0 0 
-0.102791 6.93889e-18 -0.752284 -0.534849 -0.254673 -0.143276 -1.12593 -1.12323 0 
-0.444757 0 -0.270194 -0.0819408 -0.0698252 -0.171179 -0.276506 -0.806033 -0.962761 
-1.08127 -1.36953 -2.98938 -3.30337 -3.15544 -2.9625 -3.11712 -2.94432 -2.99121 
-2.84903 -2.70918 -2.61319 -2.33347 -2.55347 -2.173 -2.04406 -2.06525 -2.07367 
-2.0725 -1.56679 -1.8076 -1.42364 -1.42372 -1.17663 -1.30517 -1.27278 -1.63327 
-1.92045 -2.05843 -2.50263 -0.0303536 -6.93889e-18 -0.861992 -0.594207 -0.451718 -0.0578476 
-0.107208 -0.386321 -0.194898 -1.14314 -1.29033 -1.2473 -0.369969 0 -2.77556e-17 
-0.191519 -0.0274979 1.04083e-17 -1.73472e-17 -3.46945e-18 -0.126037 -0.300714 -0.638546 -0.288811 
-0.919013 -1.1573 -2.56305 -3.03713 -3.17375 -3.1213 -2.98654 -2.71 -2.71567 
-2.92553 -3.12576 -3.05887 -2.88156 -2.66852 -3.07425 -2.90814 -2.90092 -2.64061 
-2.65303 -2.48138 -2.36153 -2.27621 -2.18053 -2.01019 -2.15628 -2.30656 -1.45162 
-1.63116 -1.84805 -1.54875 -2.03167 -3.46945e-18 0 -0.980169 -0.745665 -0.489977 
0 3.46945e-18 3.46945e-18 -0.348168 -0.136185 3.46945e-18 0 -0.321738 -0.246144 
-1.14896 -1.45253 0 2.77556e-17 0 1.38778e-17 0 1.73472e-18 -1.04083e-17 
-6.93889e-18 -0.0803631 -0.334403 -0.549595 3.46945e-18 0 -0.0327463 -1.28729 -0.803912 
-0.420527 -2.44486 -2.81096 -2.72988 -2.91114 -2.91599 -2.3715 -2.66289 -2.44761 
-2.99261 -3.04556 -2.59907 -2.72761 -2.83655 -2.35996 -2.80282 -2.7321 -2.47436 
-2.55934 -2.20013 -2.47781 -2.10573 -2.304 -2.12859 -2.13218 -1.89399 -2.02642 
-1.94055 -1.97341 -1.81845 -1.78908 -1.63914 -1.71759 -1.97701 -0.925434 -0.620151 
-0.599715 -0.333274 3.46945e-18 -0.180252 6.93889e-18 -1.24883 -1.50831 -1.71339 0 
0 -6.93889e-18 3.46945e-18 0 -3.46945e-18 -1.43433 -0.191561 -0.30445 -0.792468 
-1.11854 6.93889e-18 -2.39304 -2.36978 -2.15332 -2.20823 -2.76497 -2.89836 -2.66119 
-2.1561 -1.98351 -2.06764 -2.38515 -2.68857 -2.37745 -2.58495 -2.586 -2.68185 
-2.17098 -2.46442 -2.38744 -2.01821 -2.01572 -1.63015 -1.55594 -1.89904 -1.96925 
-1.88595 -1.60498 -1.34446 -1.54428 -1.74754 -1.73291 -1.64173 -1.52036 -1.43718 
-1.41593 -1.96915 -1.15997 -0.669464 -0.895668 -1.03089 -0.407085 -0.0768839 0 
-1.38904 -1.62566 -1.43461 -1.28087 -1.10375 2.77556e-17 6.93889e-18 6.93889e-18 -0.074129 
-1.38778e-17 6.93889e-18 -6.93889e-18 -0.115848 -0.337512 -0.768031 -1.86814 -1.60406 -1.88874 
-1.78263 -2.14014 -2.3599 -2.48734 -2.5654 -2.54965 -2.00421 -1.94362 -1.78514 
-1.81813 -2.01189 -2.32554 -2.34828 -2.34789 -2.42622 -2.22382 -2.3928 -2.23505 
-2.4712 -2.5998 -2.39348 -2.0505 -2.14276 -1.56278 -1.59453 -1.52055 -1.13557 
-1.01147 -1.2609 -1.4324 -1.37659 -0.816368 -1.19541 -1.11828 -1.35261 -1.24481 
-1.22215 -0.998609 -1.02348 -1.56454 -1.16085 -0.652007 -0.661996 -0.846731 -0.967915 
-0.535052 -0.323313 0 -6.93889e-18 -6.93889e-18 -0.0472732 -1.29194 -1.11521 -0.77827 
-0.84156 -0.671974 0 6.93889e-18 -1.38778e-17 -6.93889e-18 -0.222956 -0.365507 -1.36377 
-1.57384 -1.23126 -1.22872 -1.44023 -1.52227 -1.75577 -1.98618 -2.33858 -2.42382 
-2.14658 -1.87689 -1.73616 -1.58513 -1.60751 -1.58905 -1.80954 -1.94947 -2.09101 
-2.21973 -2.2117 -2.08434 -2.29216 -2.42635 -2.33112 -2.20149 -2.2422 -1.80501 
-1.12867 -1.20021 -1.49793 -1.17759 -0.857213 -0.72239 -0.593243 -0.520811 -0.951993 
-0.493642 -0.382996 -0.84687 -0.972699 -0.978459 -0.735431 -0.558352 -0.451973 -0.880761 
-0.470517 -0.473255 -0.609047 -0.795665 -0.329134 -0.176743 0 -6.93889e-18 0 
-0.911382 -0.93495 -1.04216 -0.505675 -0.421042 -0.208325 -0.574701 -0.332829 -1.38778e-17 
-6.93889e-18 -0.0575583 1.73472e-17 6.93889e-18 -0.184231 -0.832239 -1.07176 -0.829731 -0.920275 
-1.19712 -1.29735 -1.46831 -1.66471 -1.904 -2.02604 -2.17195 -2.15106 -2.14129 
-1.99508 -1.75008 -1.69791 -1.55837 -1.43352 -1.4152 -1.41899 -1.68401 -1.41237 
-1.39159 -1.90262 -1.99469 -1.74523 -2.03157 -2.14398 -2.09935 -2.27704 -2.24159 
-2.23156 -2.02906 -2.00807 -2.0508 -1.55222 -0.711126 -1.28776 -0.953109 -0.496455 
-0.367014 -0.228619 -0.0840045 -0.681976 -0.225246 -0.323022 -0.0515498 -0.0125328 -0.693172 
-0.477125 -0.235499 -0.13 -0.186389 -0.281043 -0.449297 -0.327674 -0.563256 -0.310707 
-0.733237 -0.0998022 -1.38778e-17 -0.815027 -0.65951 -0.821576 -0.385492 -0.0296093 -0.0109568 
0 0 -2.77556e-17 0 -6.93889e-18 -3.46945e-18 -1.73472e-18 -0.0321423 -0.483168 
-0.521005 -0.727152 -0.594581 -0.77928 -1.05187 -1.17252 -1.30497 -1.37968 -1.31694 
-1.51062 -1.57283 -1.69215 -1.94061 -2.00275 -1.9259 -1.73601 -1.49281 -1.57251 
-1.36666 -1.2438 -1.22113 -1.32231 -1.23163 -1.45857 -1.71248 -1.20719 -1.89757 
-1.70819 -1.89998 -1.329 -1.89441 -2.12665 -2.06185 -1.88534 -1.77482 -1.69414 
-0.219033 -0.607746 -0.392776 -1.05107 -0.701693 -0.242756 -0.110789 0 0 
0 1.38778e-17 0 -0.0646828 -1.38778e-17 6.93889e-18 -3.46945e-18 0 6.93889e-18 
0 1.38778e-17 2.77556e-17 0 -1.38778e-17 -1.38778e-17 -0.106144 -0.157713 -0.3088 
-0.334729 -0.62151 -0.0515731 0 0 -0.748098 -0.594475 -0.593553 -0.0951366 
-0.413953 -0.252293 0 -3.46945e-18 0 -1.73472e-18 0 0 0 
0 -0.170824 -0.316775 -0.272072 -0.388062 -0.341123 -0.496819 -0.655773 -0.93547 
-1.24321 -1.04572 -1.29216 -1.41411 -1.46846 -1.4543 -1.50063 -1.69785 -1.68262 
-1.82631 -1.63294 -1.52141 -1.26583 -1.23752 -1.07323 -1.00414 -1.0838 -0.999481 
-1.06754 -1.64419 -1.20394 -1.42833 -1.05954 -1.0712 -1.82495 -1.98444 -1.37198 
-0.990128 -0.806889 -2.0801 -1.79008 -1.90384 -1.54367 -1.53944 0 0 
-0.163693 0 -6.93889e-18 -0.268556 -0.43516 -3.46945e-18 0 6.93889e-18 0 
-3.46945e-18 -8.67362e-18 -6.93889e-18 6.93889e-18 3.46945e-18 3.46945e-18 -0.464538 -0.223292 -0.569658 
0 0 0 -0.419427 -0.065645 0 -0.222252 -0.283987 -6.93889e-18 
-3.46945e-18 -0.128292 -0.105531 -0.204664 -0.150828 -0.271745 -0.391336 -0.481936 -0.700359 
-0.851259 -1.15516 -0.835524 -1.03497 -1.35361 -1.2005 -1.25367 -1.25822 -1.33019 
-1.55193 -1.60217 -1.48707 -1.40501 -1.41106 -1.17903 -1.00622 -0.998303 -0.811588 
-0.872647 -0.804695 -0.860514 -0.779483 -0.856193 -0.928959 -1.53692 -0.988171 -1.27221 
-1.0288 -1.68756 -1.97853 -0.931881 -1.14783 -1.24027 -0.694606 -0.525082 -1.58795 
-1.88301 -1.6287 -1.1772 -0.0212694 -1.38778e-17 -0.229028 -0.0268365 3.46945e-18 1.73472e-18 
-0.331629 -0.22301 3.46945e-18 -0.313223 -0.298511 -0.240891 -0.122542 0 0 
-0.0978276 0 3.46945e-18 0 -0.0317616 -1.73472e-18 6.93889e-18 -0.117444 -0.197895 
-0.293059 -0.273395 -0.457488 -0.618331 -0.598044 -0.828172 -1.03386 -1.12963 -1.14987 
-1.16214 -1.12793 -1.26856 -1.3953 -1.46562 -1.30597 -1.3262 -1.21643 -1.17222 
-1.0101 -0.806084 -0.835942 -0.809831 -0.652863 -0.630617 -0.705224 -0.65565 -0.665814 
-0.643754 -0.565993 -0.743434 -0.812009 -1.37124 -1.10663 -0.875247 -1.53136 -1.76374 
-1.86152 -1.95963 -0.646792 -1.04184 -0.81366 -0.469011 -1.39778 -1.71367 -1.48886 
-1.30021 -1.09976 -0.813837 -0.720852 0 0 -0.110245 1.73472e-18 3.46945e-18 
0 0 -0.267819 6.93889e-18 -0.0629747 -0.0824547 -1.38778e-17 -3.46945e-18 6.93889e-18 
0 6.93889e-18 0 0 1.73472e-18 -1.73472e-18 -0.022108 -0.119959 -0.047858 
-0.169504 -0.3683 -0.441516 -0.663755 -0.901617 -1.15389 -1.32872 -1.04443 -1.12717 
-0.917816 -0.924169 -0.936289 -0.717452 -0.536077 -0.421814 -0.489342 -0.494993 -0.535872 
-0.502136 -0.487308 -0.465628 -0.364686 -0.411788 -0.607842 -0.675857 -1.24273 -0.974601 
-0.730885 -1.46173 -1.76246 -0.47068 -0.496094 -1.62372 -1.29475 -0.916255 -0.819062 
-0.566021 -0.534178 -0.478919 -1.38778e-17 -0.0787922 -0.260629 3.46945e-18 0 0 
6.93889e-18 0 6.93889e-18 0 -3.46945e-18 0 6.93889e-18 -6.93889e-18 3.46945e-18 
0 -0.261144 -6.93889e-18 -0.0879242 -0.234847 -0.672462 -0.404458 -0.709336 -0.930139 
-0.617085 -0.60183 -0.557074 -0.50529 -0.379368 -0.298969 -0.263656 -0.302229 -0.337683 
-0.322062 -0.319154 -0.150556 -0.262129 -0.229271 -0.500431 -0.311817 -0.57736 -1.14696 
-0.855002 -0.58533 -0.610551 -1.60045 -1.6551 -1.45757 -0.287671 -1.65016 -1.41 
-1.02947 -0.870516 -0.608312 -0.399272 -0.379124 -0.248796 -0.343741 -0.347509 -0.310317 
0 -0.0347157 0 0 -0.0435399 -0.209448 -0.557803 -0.327759 -0.18215 
-0.606532 -0.378462 -0.300574 -0.27242 -0.419641 -0.315036 -0.361782 -0.220909 -0.128199 
-0.0984911 -0.109616 -0.0493736 -0.143505 -0.180846 -1.38778e-17 -6.93889e-18 -6.93889e-18 1.38778e-17 
-0.140025 -0.072962 -0.106081 -0.421879 -0.181211 -0.998435 -1.21286 -0.806467 -0.386675 
-0.612498 -1.52919 -1.40501 -0.119632 -1.21383 -0.973742 -0.499113 -0.862745 -0.681757 
-0.750248 -0.205667 -0.0790681 -0.0980038 -0.237158 -0.172542 -0.15473 3.46945e-18 3.46945e-18 
-3.46945e-18 0 0 3.46945e-18 -6.93889e-18 -0.396444 -0.422056 -0.163106 -0.244239 
3.46945e-18 -0.414476 -0.217436 -0.22523 -0.0622104 -0.102456 -0.128705 -0.255356 -0.111963 
-0.18011 -0.15765 -0.234746 -0.113377 -0.0434644 6.93889e-18 0 -0.0137105 1.38778e-17 
6.93889e-18 0 0 -6.93889e-18 0 6.93889e-18 6.93889e-18 1.04083e-17 -1.04083e-17 
-6.93889e-18 0 -1.38778e-17 6.93889e-18 -6.93889e-18 -0.242449 -3.46945e-18 -0.028675 -1.08353 
-0.797893 -0.167311 -0.221606 -0.369562 -0.563224 -1.26123 -1.16922 -1.13298 5.20417e-18 
0 -1.03354 -0.966633 -0.937689 -0.766749 -0.47383 -0.349225 -0.241377 -0.681176 
1.73472e-18 1.73472e-18 0 0 3.46945e-18 6.93889e-18 -1.04083e-17 -0.0607998 -0.0148061 
-0.251481 -3.46945e-18 -0.0823424 -0.0970874 -0.0496702 -0.190419 -0.0452317 0 -6.93889e-18 
0 -6.93889e-18 -3.46945e-18 6.93889e-18 0 0 -0.036339 -0.128108 -0.0960017 
-0.111361 -0.0104447 3.46945e-18 0 3.46945e-18 0 -1.73472e-18 0 0 
0 -0.00326152 -0.977845 -0.764623 -0.22048 -0.498768 -1.09064 -0.876146 -0.998724 
-0.878119 -0.964975 -0.984047 -0.818272 -0.870828 -0.789058 -0.627642 -0.508949 -0.231323 
-0.264879 0 -0.0627551 -1.73472e-18 -6.93889e-18 -6.93889e-18 -0.0575042 0 0 
-3.46945e-18 0 -6.93889e-18 0 3.46945e-18 3.46945e-18 -6.93889e-18 -3.46945e-18 -0.0281578 
-3.46945e-18 8.67362e-19 0 1.73472e-18 0 -4.33681e-19 0 0 -1.73472e-18 
-0.580553 -0.73312 -3.46945e-18 -0.0901937 -0.315542 -0.39685 -0.529345 -0.656475 -0.88764 
-0.736306 -0.823781 -0.773359 -0.638231 -0.679293 -0.791951 -0.465807 -0.262694 -0.118109 
0 0 -3.46945e-18 0 3.46945e-18 -0.392824 -0.506514 1.38778e-17 0 
-0.197674 5.20417e-18 -1.73472e-18 -0.145021 -0.288142 -0.309814 -0.420314 -0.486337 -0.65964 
-0.495858 -0.284212 -0.0759587 -0.125589 -6.93889e-18 -0.258547 -0.229417 -8.67362e-19 -0.00600351 
-1.38778e-17 -3.46945e-18 -0.0286868 0 -0.0763365 6.93889e-18 -0.0593753 -0.103583 -0.237181 
-0.157873 -0.231722 -0.426653 -0.201153 -0.292864 -0.136379 -0.0349329 -3.46945e-18 0 
-6.93889e-18 1.73472e-18 -0.040602 8.67362e-19 0 0 0 0 3.46945e-18 
-1.38778e-17 6.93889e-18 0 -0.0357975 0 3.46945e-18 -0.0508133 -0.164014 -0.0369067 
-0.155127 -0.0067985 -0.0251634 3.46945e-18 3.46945e-18 -3.46945e-18 0 0 6.93889e-18 
0 -6.93889e-18 0 0 0 0 -8.67362e-19 8.67362e-19 -8.67362e-19 
-8.67362e-19 
NORMALS Normals float
0.230064 0.456678 -0.859369 0.178763 0.527623 -0.830456 0.226001 0.336904 -0.914013 
0.324104 0.322929 -0.889198 0.302265 0.534958 -0.788959 0.232959 0.604803 -0.76154 
0.283266 0.22988 -0.931083 0.171744 0.574542 -0.800254 0.245198 0.500724 -0.830153 
0.189618 0.625011 -0.757236 0.194717 0.616823 -0.762637 0.277031 0.270225 -0.922081 
0.281497 0.163974 -0.945448 0.291784 0.126857 -0.948035 0.268365 0.29415 -0.917309 
0.312097 0.426462 -0.848955 0.226048 0.644002 -0.730865 0.236365 0.64329 -0.728223 
0.229995 0.542195 -0.808163 0.228498 0.637221 -0.736029 0.220851 0.617981 -0.754536 
0.219289 0.62959 -0.745338 0.296518 0.0621001 -0.953006 0.337547 0.309106 -0.889109 
0.381666 0.463622 -0.799616 0.25055 0.620647 -0.742981 0.327581 0.59292 -0.73562 
0.219531 0.601336 -0.768246 0.334973 0.16785 -0.927157 0.205731 0.13361 -0.969445 
0.236111 0.0189797 -0.971541 0.149678 0.368681 -0.917426 0.133903 0.681841 -0.719141 
0.022766 0.620677 -0.783736 0.0813496 0.683499 -0.725404 0.283596 -0.0626521 -0.956895 
0.287705 -0.0277549 -0.957317 0.324419 0.21906 -0.920199 0.293441 0.0979904 -0.950942 
0.386564 0.330782 -0.860902 0.398141 0.544258 -0.738422 0.366803 0.576477 -0.730158 
0.02134 0.215865 -0.97619 0.113775 0.0562231 -0.991914 0.211372 -0.0374522 -0.976688 
-0.0860591 0.469477 -0.878741 -0.171298 0.5653 -0.806903 -0.135613 0.655258 -0.743132 
-0.0767478 0.670202 -0.7382 -0.0237412 0.692437 -0.721087 0.283942 -0.124707 -0.950697 
0.299193 -0.162977 -0.940171 0.281227 -0.139807 -0.949403 0.275066 -0.0204066 -0.961209 
0.314774 0.455545 -0.832704 0.290973 0.288539 -0.912184 0.268368 0.139025 -0.953232 
0.3936 0.547714 -0.738301 0.39684 0.549774 -0.735028 0.392503 0.556399 -0.732367 
-0.188305 0.416971 -0.8892 -0.169251 0.41474 -0.894061 -0.197745 0.399922 -0.894963 
-0.126225 0.187935 -0.974037 -0.0319744 -0.012477 -0.999411 0.139312 -0.0325748 -0.989713 
-0.15304 0.490142 -0.858102 0.275426 -0.139045 -0.951214 0.30907 -0.219066 -0.925465 
0.310483 -0.226061 -0.923307 0.302113 -0.235284 -0.92378 0.255389 -0.24037 -0.936482 
0.24806 -0.13768 -0.958911 0.242536 0.0113771 -0.970076 0.311484 0.510237 -0.801646 
0.288464 0.504595 -0.81374 0.274144 0.474485 -0.836486 0.264949 0.463772 -0.84541 
0.240489 0.330462 -0.912667 0.221756 0.173689 -0.959508 -0.228455 0.295906 -0.927496 
-0.302919 0.0818982 -0.949491 -0.323077 0.220837 -0.920246 -0.282709 0.0637121 -0.957087 
-0.348012 -0.0532265 -0.935978 -0.361889 -0.0515408 -0.930795 -0.275502 -0.0478577 -0.960108 
0.0925709 -0.0489677 -0.994501 0.221174 -0.172956 -0.959775 0.301288 -0.263427 -0.916423 
0.307192 -0.324288 -0.89469 0.319144 -0.348883 -0.881151 0.315897 -0.293931 -0.902116 
0.282755 -0.374768 -0.882949 0.214516 -0.281009 -0.935423 0.285293 -0.204091 -0.936459 
0.244876 -0.112591 -0.962995 0.25948 -0.203195 -0.94413 0.226316 0.0257359 -0.973714 
0.259426 0.460373 -0.848973 0.224368 0.404607 -0.88654 0.193661 0.393022 -0.898905 
0.205515 0.292673 -0.933866 0.194485 0.307889 -0.931332 0.224597 0.184449 -0.956836 
-0.308617 0.0649968 -0.948963 -0.315502 0.0359161 -0.948245 -0.44914 -0.0600217 -0.891443 
-0.621714 -0.185846 -0.760876 -0.63017 -0.069044 -0.773382 -0.349522 -0.132843 -0.927463 
-0.048053 -0.130269 -0.990314 0.119032 -0.210562 -0.970307 0.321299 -0.353493 -0.878527 
0.32551 -0.439895 -0.83698 0.314983 -0.462668 -0.828688 0.321143 -0.477277 -0.81797 
0.316086 -0.390117 -0.864811 0.252447 -0.457579 -0.85258 0.314952 -0.53623 -0.783111 
0.295098 -0.482374 -0.824762 0.202069 -0.349645 -0.914831 0.371833 -0.295522 -0.880004 
0.272202 -0.264619 -0.925139 0.213582 -0.151883 -0.965046 0.315528 -0.280273 -0.906581 
0.228268 0.0443306 -0.972588 0.195704 0.406303 -0.892534 0.190878 0.40654 -0.893471 
0.187519 0.39327 -0.900097 0.206536 0.350673 -0.913439 0.219207 0.319119 -0.922015 
0.240354 0.203434 -0.949128 -0.679938 -0.00686104 -0.733237 -0.72884 -0.259304 -0.633682 
-0.722947 -0.149988 -0.674427 -0.719106 -0.285824 -0.633397 -0.700264 -0.311882 -0.642153 
-0.59528 -0.244528 -0.765407 -0.699219 -0.0514913 -0.713051 -0.705312 -0.00963273 -0.708832 
-0.756739 -0.0882361 -0.647735 -0.244853 -0.227978 -0.942376 0.00984201 -0.406665 -0.913524 
0.218697 -0.365736 -0.90466 0.175525 -0.521719 -0.834866 0.302826 -0.476628 -0.825301 
0.303121 -0.533363 -0.78971 0.326327 -0.547625 -0.770466 0.311009 -0.537058 -0.784119 
0.316655 -0.533642 -0.784191 0.321384 -0.563664 -0.760917 0.324184 -0.571614 -0.753765 
0.268613 -0.478079 -0.836234 0.347409 -0.524002 -0.777643 0.324021 -0.517409 -0.792022 
0.336192 -0.623774 -0.705607 0.325373 -0.601163 -0.729887 0.365922 -0.420021 -0.830472 
0.369712 -0.424747 -0.826379 0.295429 -0.362936 -0.883741 0.20158 -0.311733 -0.928541 
0.183685 -0.260103 -0.947948 0.13909 -0.102223 -0.98499 0.227513 0.0336326 -0.973194 
0.261793 0.104796 -0.959418 0.196455 0.392173 -0.898669 0.197562 0.382921 -0.902408 
0.201185 0.378896 -0.903306 0.196258 0.343677 -0.918351 0.177738 0.327241 -0.928075 
0.238838 0.135858 -0.961509 -0.737221 -0.261343 -0.623061 -0.754881 -0.226244 -0.615604 
-0.733255 -0.274042 -0.622285 -0.750928 -0.171147 -0.637821 -0.736066 -0.276118 -0.618034 
-0.725661 -0.289561 -0.624157 -0.674895 -0.330989 -0.659517 -0.506213 -0.451647 -0.734686 
-0.549195 -0.434564 -0.71382 -0.337486 -0.416795 -0.844029 -0.116412 -0.518853 -0.8469 