# vtk DataFile Version 4.2
3D Slicer output. SPACE=LPS
ASCII
DATASET POLYDATA
POINTS 528 float
4.44872 -175.916 -886.135 5.211 -175.78 -886.091 4.29901 -176.499 -886.175 
4.65453 -175.316 -885.911 5.0091 -177.065 -886.174 6.3257 -175.749 -885.914 
5.38188 -174.659 -885.324 6.20938 -174.818 -885.364 3.99316 -177.277 -886.16 
4.93058 -174.778 -885.501 3.51938 -178.872 -886.164 3.7088 -179.174 -886.169 
6.9162 -176.365 -885.947 6.6899 -177.216 -885.967 5.15025 -179.05 -885.939 
7.04938 -175.467 -885.512 5.08376 -174.398 -885.213 6.45935 -174.136 -884.624 
5.7582 -173.857 -884.492 7.7892 -174.075 -884.252 3.40283 -179.412 -886.143 
3.61015 -180.986 -885.77 3.23067 -180.334 -885.952 8.76077 -176.347 -885.147 
8.90745 -177.262 -885.206 7.0376 -178.831 -885.576 8.77127 -178.71 -885.009 
5.00454 -180.637 -885.523 9.04471 -174.85 -884.21 5.29381 -174.024 -884.812 
6.95507 -173.677 -883.943 5.47291 -173.709 -884.546 5.71058 -173.409 -884.147 
6.49125 -173.369 -883.438 8.2498 -173.474 -883.571 10.7261 -173.543 -882.678 
3.10944 -180.863 -885.751 3.15221 -182.085 -885.431 3.30967 -182.6 -885.311 
3.89055 -182.34 -885.294 10.1483 -176.58 -884.506 10.2491 -175.574 -884.162 
10.8719 -177.57 -884.056 7.41125 -180.645 -884.82 9.0049 -180.186 -884.44 
10.7854 -179.281 -883.85 5.94565 -181.557 -884.802 4.3061 -182.722 -884.857 
11.146 -174.547 -883.314 7.10345 -173.447 -883.373 8.136 -173.314 -883.243 
6.03624 -172.99 -883.505 6.2057 -172.949 -883.154 7.33965 -173.532 -882.718 
6.80695 -172.919 -882.391 10.2188 -173.073 -882.369 12.6586 -173.764 -882.219 
12.4738 -173.165 -881.737 3.17584 -182.355 -885.316 3.23801 -182.673 -885.247 
3.74465 -183.353 -884.913 3.33286 -182.939 -885.135 3.60443 -183.459 -884.86 
11.8989 -175.01 -883.21 12.4784 -176.033 -883.119 11.9221 -178.01 -883.478 
13.5487 -177.537 -882.529 9.34729 -181.492 -883.61 7.69972 -182.043 -883.995 
12.4136 -179.825 -882.632 12.8991 -178.767 -882.726 5.2846 -183.127 -884.044 
6.43434 -182.987 -883.781 3.9009 -183.784 -884.434 5.01435 -183.923 -883.642 
8.1447 -173.356 -882.883 9.29855 -172.968 -882.209 6.01373 -172.85 -883.291 
6.16798 -172.71 -882.952 8.1567 -173.301 -882.443 7.4293 -173.238 -882.299 
6.49019 -172.571 -882.417 6.57242 -172.507 -882.207 7.358 -172.641 -881.803 
6.82645 -172.427 -881.83 11.1259 -172.749 -881.558 13.5947 -174.445 -882.048 
13.5156 -173.549 -881.517 13.5462 -172.786 -880.815 3.70413 -183.725 -884.563 
14.4658 -176.361 -882.128 14.6945 -174.945 -881.675 14.7149 -177.47 -881.978 
14.9228 -178.422 -881.694 8.88976 -183.031 -882.753 12.3589 -181.196 -881.799 
9.8705 -182.527 -882.58 7.69495 -183.524 -882.929 6.12289 -184.487 -882.658 
3.74952 -183.928 -884.355 3.81124 -184.215 -883.995 3.93055 -184.649 -883.541 
3.99678 -184.839 -883.343 4.78495 -184.763 -883.021 8.06475 -173.082 -882.148 
8.5974 -172.677 -881.636 7.0362 -172.329 -881.615 7.53108 -172.241 -881.029 
8.12325 -172.475 -881.145 10.1978 -172.641 -880.839 12.8132 -172.575 -880.574 
14.5614 -173.681 -881.039 15.7729 -173.125 -880.169 15.1209 -172.626 -879.788 
15.878 -175.738 -881.529 15.9923 -176.634 -881.562 16.653 -175.018 -881.106 
16.3905 -178.482 -881.02 15.1986 -179.043 -881.328 9.19349 -184.003 -881.557 
11.6548 -182.489 -881.231 14.9136 -180.575 -880.549 7.38072 -184.357 -882.28 
5.98566 -185.719 -881.351 4.8243 -185.518 -882.138 4.11262 -185.141 -883.001 
4.21691 -185.352 -882.774 4.33644 -185.584 -882.424 7.2875 -172.204 -881.194 
7.39421 -172.152 -880.98 7.59443 -172.135 -880.526 9.21636 -172.598 -880.202 
10.7478 -172.799 -880.343 13.7351 -172.578 -879.684 16.5503 -173.91 -880.54 
16.8221 -173.105 -879.806 16.6688 -172.522 -879.109 15.7925 -172.501 -878.915 
17.4299 -175.834 -881.194 17.7019 -176.775 -881.237 17.816 -174.504 -880.708 
17.1045 -179.067 -880.681 15.9399 -180.149 -880.351 10.7694 -183.679 -880.634 
8.13139 -185.145 -880.887 13.6753 -182.201 -879.905 15.3905 -181.329 -879.647 
4.71721 -186.129 -881.458 7.55329 -185.818 -880.215 5.14087 -186.618 -880.445 
5.22603 -186.721 -880.227 4.54211 -185.889 -881.828 8.43804 -172.338 -880.212 
9.11555 -172.579 -880.113 9.24084 -172.634 -880.105 9.42337 -172.694 -880.09 
11.5204 -172.983 -879.903 10.3962 -172.928 -879.978 10.8305 -173.018 -879.951 
13.9077 -172.703 -879.237 15.4897 -172.576 -878.563 17.5904 -173.442 -880.001 
17.9582 -172.484 -879.011 16.7171 -172.189 -878.518 18.3507 -171.955 -878.24 
19.0019 -175.812 -881.241 19.0415 -174.112 -880.53 18.6597 -177.031 -881.303 
18.6491 -173.162 -879.8 18.8042 -178.274 -881.041 17.5843 -179.718 -880.342 
16.7359 -181.117 -879.209 9.68195 -184.783 -880.144 12.5083 -183.439 -879.342 
15.5023 -181.89 -878.933 9.20198 -185.65 -879.037 7.26877 -186.439 -879.258 
5.26984 -186.776 -880.091 11.2612 -173.034 -879.856 12.0417 -173.041 -879.637 
11.5134 -173.026 -879.785 13.5613 -172.951 -879.125 14.4528 -172.858 -878.816 
15.192 -172.763 -878.535 16.6119 -172.149 -878.209 16.3265 -172.413 -877.948 
19.6272 -172.007 -878.942 19.3715 -171.66 -878.165 18.533 -171.85 -877.392 
17.7229 -172.044 -877.284 20.5565 -175.23 -881.62 20.3843 -177.066 -881.88 
20.3958 -173.777 -880.905 20.1454 -172.634 -879.957 19.7077 -177.758 -881.481 
19.4996 -179.301 -880.791 18.2153 -180.262 -879.967 17.9697 -181.484 -878.658 
17.1248 -181.882 -878.108 12.2616 -184.04 -878.593 14.8914 -182.552 -878.371 
15.9149 -182.224 -877.971 12.0485 -184.468 -877.867 8.43101 -186.459 -878.058 
5.31542 -186.846 -879.868 6.44777 -186.887 -878.786 15.9956 -172.539 -878.073 
16.2862 -172.468 -877.919 16.5551 -172.41 -877.726 21.3609 -171.681 -879.563 
20.4851 -171.169 -878.2 20.2533 -170.97 -877.35 19.6673 -171.251 -876.533 
18.2789 -171.977 -876.702 18.7355 -171.893 -876.497 17.4865 -172.255 -877.101 
23.3703 -174.294 -882.407 22.7938 -175.982 -882.864 21.3065 -176.709 -882.374 
22.8558 -173.432 -881.718 22.4653 -178.445 -882.875 20.8053 -178.61 -881.876 
21.0457 -173.08 -880.782 22.7414 -172.188 -880.67 20.4527 -179.699 -881.141 
21.2176 -181.314 -880.501 19.8039 -180.937 -879.841 18.7536 -180.632 -879.738 
18.7233 -181.252 -879.046 18.8006 -181.884 -878.095 16.5205 -182.315 -877.342 
17.7363 -182.32 -876.911 15.1681 -182.877 -877 9.54704 -186.026 -877.088 
12.8978 -184.17 -876.793 7.53615 -186.858 -877.542 8.68463 -186.446 -876.155 
5.50104 -186.987 -879.129 5.6061 -187.061 -878.653 5.64295 -187.105 -878.33 
6.07035 -187.063 -878.107 23.7546 -171.519 -880.223 22.523 -171.047 -879.075 
21.5319 -170.628 -877.781 21.0233 -170.456 -876.584 19.1776 -171.631 -876.307 
20.774 -170.545 -875.823 20.1161 -171.065 -875.884 24.5699 -174.958 -882.997 
24.652 -173.331 -882.165 24.2092 -176.578 -883.431 23.3422 -177.776 -883.27 
24.6631 -172.333 -881.357 23.8589 -179.509 -883.202 22.0821 -180.052 -882.059 
23.1075 -181.59 -881.631 22.755 -182.473 -880.583 20.8694 -182.098 -879.325 
19.6319 -181.657 -878.898 19.5943 -182.19 -877.838 19.1088 -182.334 -877.092 
16.494 -182.578 -876.102 18.2801 -182.347 -876.25 14.9979 -183.111 -875.99 
11.2357 -185.177 -875.654 13.5083 -183.836 -875.502 6.51265 -187.001 -877.127 
7.4055 -186.85 -876.33 8.16775 -186.54 -875.733 10.1347 -185.689 -874.986 
8.85775 -186.287 -875.053 5.66086 -187.028 -878.077 5.52783 -187.041 -877.858 
5.66645 -187.063 -877.773 26.5886 -171.185 -880.482 24.6428 -170.912 -879.577 
23.7712 -170.515 -878.603 22.6648 -170.4 -877.676 22.4963 -170.228 -876.587 
21.7099 -170.245 -875.7 20.6202 -170.724 -875.63 21.2436 -170.489 -875.226 
25.8992 -176.116 -883.669 26.9362 -174.574 -883.265 26.3228 -173.064 -882.3 
25.9754 -177.717 -883.811 25.16 -178.78 -883.752 27.1435 -172.179 -881.668 
24.9023 -180.035 -883.341 23.4319 -180.672 -882.518 24.7167 -181.758 -882.332 
24.1454 -182.639 -881.283 23.6028 -183.485 -879.818 22.4595 -183.198 -879.312 
21.0133 -182.678 -878.518 20.337 -182.675 -877.27 19.1872 -182.336 -876.346 
16.2552 -182.585 -875.696 17.6365 -182.416 -875.968 14.9128 -183.191 -875.477 
18.8819 -182.218 -876.136 18.2375 -182.264 -876.124 12.3461 -184.489 -874.672 
12.1593 -184.597 -874.628 11.1707 -185.163 -874.448 13.7533 -183.608 -875.032 
14.523 -183.3 -875.202 6.05324 -186.85 -877.038 6.78418 -186.83 -876.31 
6.92428 -186.806 -876.185 7.713 -186.548 -875.626 7.87233 -186.488 -875.514 
8.20109 -186.401 -875.298 10.9644 -185.263 -874.44 10.1775 -185.458 -874.398 
8.82603 -186.176 -874.904 9.80534 -185.675 -874.536 5.50723 -186.954 -877.823 
5.8693 -186.891 -877.245 27.7803 -171.413 -880.875 28.4581 -170.738 -880.013 
27.6851 -170.411 -879.363 25.7107 -170.343 -878.647 24.2191 -170.063 -877.292 
22.6907 -170.003 -876.059 23.4628 -169.882 -875.025 21.3759 -170.458 -875.146 
22.594 -170.192 -874.729 27.5488 -176.197 -883.795 28.3237 -175.218 -883.479 
27.3969 -173.212 -882.546 28.334 -173.204 -882.436 28.2608 -177.561 -883.826 
28.1426 -178.938 -883.697 25.9898 -179.262 -883.802 28.2796 -172.098 -881.559 
25.6049 -180.811 -883.109 26.382 -181.979 -882.475 25.6448 -182.633 -881.851 
25.0366 -183.179 -881.021 25.0751 -183.725 -880.283 24.6915 -184.227 -879.139 
23.2747 -183.954 -878.585 21.8792 -183.451 -877.842 21.0382 -183.22 -876.676 
19.9458 -182.472 -876.078 19.1038 -182.213 -876.151 20.0002 -182.377 -875.828 
19.5446 -182.294 -875.987 15.2838 -182.985 -875.397 28.9373 -171.22 -880.485 
29.4401 -170.344 -879.194 27.0313 -170.082 -878.47 29.0596 -169.933 -878.543 
24.947 -169.873 -877.054 26.1585 -169.757 -875.432 24.157 -170.266 -873.838 
26.0027 -169.945 -873.945 21.4795 -170.447 -875.056 22.1265 -170.375 -874.499 
22.5497 -170.387 -874.132 28.5428 -176.563 -883.776 29.665 -176.967 -883.213 
28.9215 -174.028 -882.748 29.3419 -174.981 -882.859 29.1674 -172.709 -881.855 
29.4622 -178.215 -883.476 27.576 -180.393 -883.316 29.1353 -179.677 -883.292 
29.3733 -171.927 -881.018 27.7227 -181.852 -882.492 27.1633 -182.87 -881.694 
26.4583 -183.485 -880.973 26.2204 -184.39 -879.452 24.7548 -184.569 -878.424 
22.7255 -184.023 -877.31 24.0269 -184.647 -876.834 22.0963 -183.796 -876.164 
20.9925 -182.91 -875.765 20.4933 -182.537 -875.589 29.586 -170.998 -879.966 
[...]
POINT_DATA 528
SCALARS scalars float
LOOKUP_TABLE default
5.55112e-17 -0.79345 5.55112e-17 5.55112e-17 -0.933357 -1.73073 -0.38939 -1.21246 0 
0 2.77556e-17 -0.273526 -2.48081 -2.53577 -1.58444 -2.24611 0 -1.05251 
-0.324314 -2.11441 0 -0.524308 -5.55112e-17 -4.15645 -4.66057 -3.37071 -5.0549 
-1.86182 -3.5637 -2.77556e-17 -1.15789 -2.77556e-17 0 -0.614008 -2.08646 -2.81484 
5.55112e-17 1.38778e-17 -0.147295 -0.526804 -5.469 -4.94689 -6.21374 -4.31635 -5.81497 
-7.358 -2.75356 -0.854927 -3.78152 -1.08588 -1.82968 0 -0.274254 -1.28454 
-0.519344 -2.38254 -2.74096 -2.13198 0 0 -0.187538 0 -1.38778e-17 
-3.98281 -4.59252 -6.22895 -5.52245 -6.14332 -4.36969 -7.42264 -6.56315 -1.75575 
-2.89562 -0.182206 -1.26311 -1.76317 -2.13026 -2.77556e-17 2.77556e-17 -1.64066 -1.07212 
-5.55112e-17 0 -0.49692 2.77556e-17 -1.69486 -3.09392 -2.28161 -1.58257 0 
-4.58491 -3.4047 -5.43426 -6.16931 -5.22078 -7.24476 -6.32145 -3.93061 -2.09347 
0 5.55112e-17 0 -5.55112e-17 -0.768891 -1.37242 -1.43911 0 -0.165862 
-0.81279 -0.868501 -1.19672 -2.25003 -1.82167 -1.18799 -4.22336 -4.9309 -3.79155 
-6.35929 -6.65526 -4.9463 -6.69566 -5.43358 -3.24727 -1.30672 -0.460157 0 
0 0 0 -2.77556e-17 6.93889e-18 -0.0967156 -0.445861 -0.691268 -2.74512 
-1.98826 -1.22324 -0.65567 -4.70616 -5.51775 -3.76206 -5.70657 -5.16253 -6.21615 
-3.42082 -4.83734 -4.23562 -1.11022e-16 -2.53109 5.55112e-17 5.55112e-17 -2.77556e-17 -6.93889e-18 
-1.38778e-17 0 0 -0.124151 -2.77556e-17 -2.77556e-17 -0.317534 -0.209537 -2.64848 
-1.85111 -0.788201 -1.46187 -5.44896 -4.09989 -6.15198 -3.00073 -6.29493 -4.98359 
-3.58232 -4.83584 -4.53044 -3.40269 -3.82266 -1.88601 5.55112e-17 1.38778e-17 -1.38778e-17 
1.38778e-17 0 0 -1.38778e-17 -0.516384 -0.0684804 -2.68486 -1.8668 -0.823359 
-0.340611 -6.21031 -7.30885 -5.04084 -3.88621 -7.02655 -5.53765 -4.31317 -2.67473 
-2.24512 -3.84144 -2.9602 -2.32067 -3.18398 -2.4234 -5.55112e-17 -0.938979 6.93889e-18 
0 6.93889e-18 -3.92592 -2.29534 -1.43015 -0.446731 0 -5.55112e-17 0 
-6.45568 -7.08693 -7.88005 -6.86963 -7.59977 -7.04412 -5.12173 -5.61101 -5.81245 
-4.92114 -4.02043 -3.92484 -3.05195 -1.96927 -1.55505 -0.894917 -1.56192 -2.27335 
-1.95279 -1.40977 -1.01081 5.55112e-17 -5.55112e-17 0 -0.440481 -5.6279 -3.96017 
-2.34283 -1.07558 -2.77556e-17 -0.286138 0 -5.29115 -5.13909 -5.66171 -6.6116 
-5.08969 -6.58574 -6.97083 -6.65597 -5.49534 -3.59404 -2.89784 -1.78829 -0.961191 
-0.341245 -0.147861 -0.65412 -1.23192 -0.55052 -0.432254 -0.434036 -0.379344 -0.590742 
-0.170676 -2.77556e-17 0 -0.21432 -3.03361 -4.9734 -4.21779 -2.8239 -1.84988 
-0.686742 0 1.38778e-17 -4.02468 -2.98552 -3.48535 -4.06671 -5.14225 -2.63931 
-5.89101 -7.50322 -7.02897 -6.59192 -4.99153 -4.23706 -2.90439 -1.5034 -0.24125 
0 0 -0.198442 2.77556e-17 1.38778e-17 0 5.55112e-17 5.55112e-17 5.55112e-17 
-1.38778e-17 1.38778e-17 -1.38778e-17 -1.38778e-17 0 -1.38778e-17 0 -1.38778e-17 6.93889e-18 
1.38778e-17 0 0 -1.38778e-17 -1.90664 -1.21002 -2.0424 -4.09273 -3.49959 
-1.59643 -1.37397 -4.16334e-17 -0.518146 -2.43889 -1.68111 -2.46008 -1.5298 -1.90331 
-2.67263 -4.61028 -1.5103 -5.74182 -5.80431 -6.82695 -6.37492 -5.60021 -4.39633 
-3.74521 -2.72983 -1.38606 -0.237055 0 0 0 0 -0.725793 
-0.430491 -2.90629 -0.992412 -3.82548 -2.42954 -0.657545 -1.04351 2.77556e-17 5.55112e-17 
1.38778e-17 -1.47692 -0.262459 -0.982426 -0.532592 -0.639449 -1.2204 -3.92981 -2.30052 
-0.354467 -4.70182 -5.84266 -6.54546 -4.93338 -3.71572 -2.53484 -2.10743 -1.42349 
-0.443332 0 0 2.77556e-17 0 -2.77556e-17 0 -2.36484 2.77556e-17 
-1.11022e-16 0 -1.38778e-16 -5.55112e-17 -5.55112e-17 -0.909665 -0.63339 1.38778e-17 2.77556e-17 
-0.25784 -0.254247 -1.38778e-17 2.08167e-17 -2.77556e-17 -0.488492 -2.77556e-17 2.77556e-17 -0.308847 
0 0 0 0 0 -2.77556e-17 -0.679657 -3.30157 -1.55709 
1.38778e-17 0 -4.38568 -6.00934 -5.79737 -5.12891 -3.96751 -2.9689 -2.14825 
-1.2241 -0.859733 -0.622877 -1.38778e-17 0 -4.16334e-17 -1.38778e-17 -6.93889e-18 2.77556e-17 
0 0 0 2.77556e-17 1.38778e-17 -5.55112e-17 0 -2.77556e-17 -0.117812 
-2.93388 -0.62367 -1.63575 -5.1394 -4.07088 -4.87368 -3.22953 -2.51721 -1.50227 
-0.625523 -0.384641 0 0 -4.16334e-17 0 0 -1.80356 -3.06885 
5.55112e-17 -1.38778e-17 0 -0.342946 -0.876675 -4.84361 -4.03982 -4.00959 -2.78374 
-2.34767 -1.51666 -0.964912 -2.77556e-17 2.77556e-17 -2.77556e-17 2.77556e-17 -1.65124 -2.58825 
0 0 -0.329483 -4.25252 -3.13718 -1.91407 -0.548541 1.38778e-17 -0.660369 
-3.5023 -0.212133 -1.26604 -2.77556e-17 2.77556e-17 0 0 -3.37334 -2.15575 
-1.10111 -0.0438039 0 0 5.55112e-17 2.77556e-17 -2.97951 -1.38778e-17 -2.77556e-17 
-0.00961982 0 -1.31593 -2.09365 -1.25582 -0.374314 -0.751034 1.38778e-17 3.46945e-18 
0 0 -0.756045 0 -0.0611272 -1.73472e-18 -1.33933 2.77556e-17 -0.588353 
4.16334e-17 2.77556e-17 -6.93889e-18 6.93889e-18 0 0 
