# vtk DataFile Version 4.2
3D Slicer output. SPACE=LPS
ASCII
DATASET POLYDATA
FIELD FieldData 2
MaterialNames 1 2 string
mtl1
NO_MATERIAL

MaterialLibraries 1 1 string
CIIFD_vtkMRMLModelNodeF.mtl

POINTS 1255 float
-27.9654 -7.96031 4.31219 -27.9491 -7.81758 4.16544 -27.8334 -7.77471 4.24661 
-28.0785 -8.17914 4.5037 -28.2147 -8.12293 4.27749 -27.8789 -8.04371 4.59578 
-27.7403 -7.83415 4.46973 -28.126 -7.86548 4.124 -27.9039 -7.61947 4.12041 
-27.6518 -7.57685 4.30571 -27.9996 -8.21167 4.73598 -28.3071 -8.34279 4.48737 
-28.1585 -8.32544 4.69323 -28.4525 -8.27374 4.28403 -28.3933 -8.00948 4.13937 
-27.8005 -8.09178 4.88881 -27.7175 -7.93064 4.70393 -27.5786 -7.68112 4.52697 
-27.6112 -7.79724 4.66423 -28.2842 -7.82844 4.06203 -28.1872 -7.61768 4.06371 
-27.6784 -7.2692 4.14067 -27.9662 -7.37113 4.07381 -27.4528 -7.29704 4.30986 
-27.454 -7.49422 4.50703 -28.0868 -8.37328 4.98308 -28.4535 -8.48852 4.5728 
-28.5277 -8.44933 4.43116 -28.3383 -8.46879 4.75084 -28.6575 -8.39937 4.32671 
-28.6285 -8.18093 4.22975 -28.4178 -7.82993 4.10062 -28.609 -8.00478 4.19022 
-28.5281 -7.93216 4.15644 -27.7943 -8.22003 5.12844 -27.5095 -7.96581 5.14128 
-27.5798 -7.85205 4.85972 -27.4768 -7.65598 4.71653 -28.3795 -7.78977 4.07943 
-28.1898 -7.58767 4.06872 -28.2614 -7.66537 4.07124 -28.2089 -7.60938 4.06876 
-27.8302 -7.11198 4.12619 -27.5971 -6.95175 4.11037 -27.9486 -7.28568 4.08569 
-27.3924 -7.00944 4.23024 -28.0022 -7.36309 4.07965 -27.3207 -7.14201 4.35129 
-27.3043 -7.26291 4.50537 -27.3101 -7.43877 4.74376 -28.471 -8.63094 5.05389 
-28.1969 -8.5659 5.25323 -27.8883 -8.44084 5.29773 -28.5737 -8.53408 4.54387 
-28.5841 -8.59374 4.7179 -28.7782 -8.55054 4.52014 -28.7501 -8.45528 4.36064 
-28.8084 -8.3459 4.33935 -28.731 -8.11538 4.26722 -28.8239 -8.18855 4.32193 
-27.6259 -8.24319 5.29602 -27.3772 -7.65651 4.95182 -27.4573 -8.13165 5.31986 
-27.3481 -8.01863 5.31611 -27.2552 -7.85272 5.28734 -27.275 -7.68367 5.14817 
-27.7638 -7.00128 4.11552 -27.648 -6.7868 4.13054 -27.4373 -6.71719 4.15959 
-27.2057 -6.69376 4.33558 -27.1954 -6.99808 4.47033 -27.1552 -7.17364 4.73197 
-27.1358 -7.37586 5.03658 -28.7583 -8.77829 5.14672 -28.7812 -8.72345 4.90049 
-28.6136 -8.79872 5.34248 -28.3971 -8.69754 5.3201 -28.2459 -8.69404 5.4234 
-28.0657 -8.62 5.4184 -27.8496 -8.6522 5.49962 -27.5426 -8.49022 5.44883 
-28.7486 -8.66448 4.7139 -29.0739 -8.57011 4.63061 -29.004 -8.39997 4.4726 
-28.8559 -8.7015 4.72748 -28.9744 -8.68405 4.69315 -28.9837 -8.29988 4.42239 
-28.9236 -8.25885 4.37207 -27.4826 -8.26137 5.38094 -27.2482 -8.21118 5.41355 
-27.2309 -7.98606 5.3661 -27.0873 -7.61536 5.284 -27.0506 -7.89718 5.40122 
-27.6166 -6.72318 4.14284 -27.5219 -6.53033 4.17784 -27.3407 -6.4425 4.25057 
-27.133 -6.3869 4.39843 -27.0546 -6.76873 4.55561 -27.0115 -6.5483 4.53955 
-27.0455 -6.92863 4.69882 -26.9872 -7.01656 4.94647 -26.9644 -7.14395 5.14205 
-26.9441 -7.33205 5.29954 -29.0621 -8.80439 5.11734 -28.8514 -8.86672 5.34808 
-28.9727 -8.75121 4.84244 -28.7515 -8.9793 5.67786 -28.4304 -8.82698 5.52075 
-28.1139 -8.84067 5.6081 -27.8168 -8.85012 5.62422 -27.6339 -8.75318 5.56464 
-27.2102 -8.56237 5.48857 -27.343 -8.85604 5.57652 -29.1795 -8.42937 4.61575 
-29.2491 -8.47367 4.71452 -29.2896 -8.53635 4.80126 -29.1292 -8.70117 4.82966 
-29.1347 -8.40004 4.5653 -29.0385 -8.33766 4.48304 -26.9275 -8.13861 5.44675 
-26.9014 -8.45914 5.46669 -26.8305 -7.58695 5.45925 -26.7446 -7.91291 5.47262 
-27.5103 -6.50553 4.18687 -27.4347 -6.3583 4.27701 -27.2875 -6.15915 4.40275 
-27.2662 -6.12981 4.42796 -26.9804 -6.3401 4.56541 -27.0564 -6.20122 4.52187 
-26.9045 -6.68762 4.8132 -26.8932 -6.42171 4.71079 -26.9077 -7.00221 5.12062 
-26.8478 -6.84665 5.1026 -26.8441 -7.04396 5.30195 -26.7646 -7.25609 5.50514 
-29.324 -8.7595 5.18964 -29.2983 -8.683 5.00777 -29.2966 -8.8294 5.41497 
-29.0591 -8.92053 5.50131 -29.0517 -9.02421 5.80242 -28.4132 -9.00729 5.76569 
-28.915 -9.1091 5.96783 -28.7681 -9.11529 5.94145 -28.607 -9.15419 5.97273 
-28.1706 -9.07726 5.82288 -27.8448 -9.09529 5.77342 -27.6174 -8.93694 5.64964 
-26.9826 -8.81523 5.5325 -27.4533 -9.12825 5.70649 -27.2657 -9.07524 5.63676 
-27.0634 -9.10931 5.62321 -29.2987 -8.50567 4.78994 -29.3094 -8.51361 4.80988 
-29.3188 -8.52427 4.84275 -29.3738 -8.58733 5.03173 -26.6615 -8.21003 5.45978 
-26.5629 -8.48754 5.45582 -26.6532 -8.77512 5.50399 -26.5485 -7.68964 5.55029 
-26.5841 -7.41779 5.62286 -26.4183 -7.98323 5.49861 -27.2544 -6.11736 4.4402 
-26.8887 -6.14977 4.78157 -27.067 -6.04432 4.59314 -26.7576 -6.59988 5.11405 
-26.7861 -6.39758 4.92102 -26.7521 -6.79037 5.3428 -26.7217 -6.98631 5.54391 
-26.6028 -7.14367 5.70263 -29.4101 -8.67056 5.13861 -29.4226 -8.69682 5.29354 
-29.4156 -8.71912 5.37238 -29.4192 -8.64053 5.12791 -29.3933 -8.7905 5.55028 
-29.3547 -8.86391 5.72271 -29.2855 -8.92476 5.75492 -29.1821 -9.055 6.00761 
-29.0551 -9.10213 6.00075 -28.3393 -9.24335 6.02002 -29.0331 -9.18476 6.26198 
-28.785 -9.22088 6.14112 -28.5583 -9.39368 6.29781 -28.0785 -9.24321 5.94335 
-27.8523 -9.37708 5.97007 -27.6039 -9.31397 5.84778 -26.7246 -9.12667 5.60695 
-27.225 -9.20693 5.68608 -27.2847 -9.40336 5.81588 -27.0897 -9.30605 5.70844 
-26.8889 -9.36542 5.71855 -26.3872 -8.29306 5.45705 -26.3654 -8.48211 5.45093 
-26.3611 -8.67919 5.48162 -26.3574 -9.03658 5.57805 -26.3022 -7.75188 5.57178 
-26.3309 -7.54146 5.65344 -26.3278 -7.267 5.80684 -26.1036 -7.9314 5.54268 
-26.1815 -8.16567 5.48482 -27.233 -6.09401 4.4651 -27.0062 -5.9239 4.75405 
-26.7324 -6.20985 5.00591 -26.7481 -6.04751 5.07637 -26.9027 -5.88269 4.9933 
-26.9503 -5.88381 4.89931 -27.1101 -5.97553 4.60985 -26.6849 -6.55374 5.38313 
-26.6827 -6.33629 5.17673 -26.683 -6.74519 5.58464 -26.6374 -6.91444 5.72861 
-26.4917 -6.94099 5.93279 -29.4281 -8.66837 5.19592 -29.3322 -8.89727 5.80066 
-29.3099 -8.93335 5.86651 -29.2477 -9.01457 6.03128 -29.2122 -9.05975 6.11382 
-29.1526 -9.11622 6.23893 -28.3277 -9.44983 6.22831 -28.116 -9.44856 6.1269 
-29.1006 -9.15097 6.33448 -29.0536 -9.21109 6.44091 -28.9922 -9.29679 6.58114 
-28.9268 -9.34168 6.54003 -28.8121 -9.33635 6.37669 -28.7386 -9.4814 6.62944 
-28.4711 -9.62925 6.60642 -28.3345 -9.59402 6.40142 -27.5825 -9.53313 5.99129 
-27.8481 -9.60243 6.14529 -26.6869 -9.37538 5.70737 -26.4935 -9.3613 5.70594 
-27.2953 -9.70524 6.04759 -27.0558 -9.41718 5.76355 -27.0207 -9.55807 5.86124 
-26.6918 -9.59693 5.85446 -26.146 -8.44757 5.47801 -26.0645 -8.78049 5.53245 
-26.2028 -9.34816 5.71433 -25.9895 -9.10462 5.62847 -26.0767 -7.6845 5.62855 
-26.0804 -7.4649 5.73994 -26.0679 -7.31925 5.84162 -26.3056 -7.09359 5.96118 
-26.057 -7.16602 5.98787 -25.7675 -7.86372 5.62223 -25.9092 -8.18806 5.52993 
-27.0479 -5.91401 4.72209 -27.0241 -5.88855 4.77431 -26.6816 -6.16568 5.13163 
-26.8802 -5.88129 5.02744 -26.7598 -5.93231 5.2081 -26.671 -6.10323 5.30509 
-26.6449 -6.32557 5.46046 -26.6499 -6.51734 5.63935 -26.6215 -6.70701 5.80645 
-26.57 -6.64703 6.01468 -26.2772 -6.96897 6.11691 -26.4625 -6.79187 6.14742 
-26.5601 -6.65136 6.03553 -28.2179 -9.57011 6.28977 -28.0682 -9.65586 6.30595 
-28.9531 -9.3715 6.77532 -28.9333 -9.39286 6.79825 -28.7964 -9.52612 6.92249 
-28.6051 -9.64742 6.88712 -28.1583 -9.77762 6.57556 -28.3625 -9.77427 6.85553 
-28.2009 -9.66345 6.39115 -27.6083 -9.74562 6.17584 -27.8358 -9.79977 6.34666 
-26.3424 -9.59405 5.85602 -26.9607 -9.77267 6.02498 -27.4583 -9.90886 6.31722 
-27.1483 -9.92404 6.23683 -26.7268 -9.81998 6.03033 -26.4867 -9.7961 6.00712 
-25.8068 -8.51467 5.54515 -25.7222 -8.86541 5.6075 -25.9681 -9.3484 5.73882 
-26.0458 -9.55501 5.86435 -25.7819 -9.23152 5.71581 -25.7818 -9.07642 5.64445 
-25.8737 -7.60018 5.70058 -25.7902 -7.38475 5.85688 -25.7961 -7.2119 6.00382 
-26.0396 -7.00116 6.21584 -25.7932 -7.10195 6.15416 -25.5266 -7.93947 5.65217 
-25.53 -8.20829 5.62555 -25.4964 -7.75893 5.71987 -25.6801 -7.6231 5.72898 
-26.7397 -5.94845 5.26523 -26.7007 -5.9717 5.41493 -26.6485 -6.11311 5.59291 
-26.636 -6.31333 5.69708 -26.6241 -6.45573 5.87693 -26.571 -6.63254 6.02248 
-26.6162 -6.44512 5.93223 -26.3639 -6.83071 6.19989 -26.2228 -6.89934 6.28816 
-28.9471 -9.38011 6.81038 -28.9293 -9.41296 7.15534 -28.981 -9.35884 7.06133 
-28.7115 -9.60619 7.15329 -28.4616 -9.74501 7.16096 -27.8484 -9.926 6.60522 
-28.198 -9.85482 6.83719 -28.0327 -9.91486 6.85254 -28.2116 -9.85781 7.04405 
-27.6387 -9.86011 6.29832 -27.6704 -9.92105 6.41764 -26.164 -9.80041 6.05014 
-26.8677 -9.93989 6.17864 -27.5847 -10.0058 6.59728 -27.2591 -10.0543 6.54182 
-26.9918 -10.0417 6.36563 -26.6371 -9.92721 6.13646 -26.4119 -9.9556 6.18042 
-25.516 -8.60306 5.62671 -25.6246 -9.09165 5.6953 -25.4816 -8.95841 5.70017 
-25.5116 -8.80084 5.64517 -25.7844 -9.44706 5.84746 -25.8068 -9.69899 6.04981 
-25.5353 -9.27963 5.82903 -25.498 -7.53083 5.83295 -25.5348 -7.37743 5.92237 
-25.5586 -7.24294 6.06148 -26.1606 -6.90753 6.31449 -26.0283 -6.93066 6.36788 
-25.8059 -6.9766 6.40037 -25.5117 -7.08823 6.33203 -25.3452 -7.94735 5.71822 
-25.2255 -8.47171 5.73801 -25.2297 -8.16048 5.73415 -25.1978 -7.6871 5.87869 
-26.6735 -6.03457 5.55195 -26.6593 -6.06687 5.62399 -26.6482 -6.12482 5.69065 
-26.6423 -6.22562 5.80795 -26.6314 -6.36083 5.88508 -28.9953 -9.33276 7.15455 
-28.8908 -9.40841 7.49709 -28.7816 -9.53563 7.37095 -29.0018 -9.30567 7.34783 
-29.0042 -9.29387 7.41341 -28.6028 -9.65259 7.38317 -28.4411 -9.73323 7.37594 
-28.2234 -9.79935 7.35019 -27.7706 -10.0023 6.89413 -27.9586 -9.93183 7.14152 
-26.1781 -9.98278 6.23689 -25.9416 -9.93581 6.24968 -26.6943 -10.0544 6.33777 
-27.4662 -10.0666 6.86223 -26.9389 -10.1249 6.59206 -27.1496 -10.119 6.87215 
-26.3487 -10.0986 6.4032 -25.3418 -8.78154 5.71839 -25.4663 -9.10865 5.76052 
-25.2474 -9.07594 5.86572 -25.5788 -9.51349 5.96998 -25.6669 -9.88878 6.30012 
-25.4914 -9.67741 6.15587 -25.3139 -9.42079 6.02954 -25.3226 -7.40649 5.99422 
-25.2193 -7.24629 6.26331 -26.072 -6.91664 6.36325 -26.0266 -6.92461 6.38841 
-25.8663 -6.94474 6.45298 -25.7835 -6.9566 6.48939 -25.5809 -6.98397 6.56774 
-25.5088 -6.99489 6.59724 -25.2316 -7.09105 6.5813 -25.1364 -7.97549 5.80439 
[...]
CELL_DATA 2230
FIELD FieldData 2
MaterialIds 1 2230 int
1 1 1 1 1 1 1 1 1 
1 1 1 1 1 1 1 1 1 
1 1 1 1 1 1 1 1 1 
1 1 1 1 1 1 1 1 1 
1 1 1 1 1 1 1 1 1 
1 1 1 1 1 1 1 1 1 
1 1 1 1 1 1 1 1 1 
1 1 1 1 1 1 1 1 1 
1 1 1 1 1 1 1 1 1 
1 1 1 1 1 1 1 1 1 
1 1 1 1 1 1 1 1 1 
1 1 1 1 1 1 1 1 1 
1 1 1 1 1 1 1 1 1 
1 1 1 1 1 1 1 1 1 
1 1 1 1 1 1 1 1 1 
1 1 1 1 1 1 1 1 1 
1 1 1 1 1 1 1 1 1 
1 1 1 1 1 1 1 1 1 
1 1 1 1 1 1 1 1 1 
1 1 1 1 1 1 1 1 1 
1 1 1 1 1 1 1 1 1 
1 1 1 1 1 1 1 1 1 
1 1 1 1 1 1 1 1 1 
1 1 1 1 1 1 1 1 1 
1 1 1 1 1 1 1 1 1 
1 1 1 1 1 1 1 1 1 
1 1 1 1 1 1 1 1 1 
1 1 1 1 1 1 1 1 1 
1 1 1 1 1 1 1 1 1 
1 1 1 1 1 1 1 1 1 
1 1 1 1 1 1 1 1 1 
1 1 1 1 1 1 1 1 1 
1 1 1 1 1 1 1 1 1 
1 1 1 1 1 1 1 1 1 
1 1 1 1 1 1 1 1 1 
1 1 1 1 1 1 1 1 1 
1 1 1 1 1 1 1 1 1 
1 1 1 1 1 1 1 1 1 
1 1 1 1 1 1 1 1 1 
1 1 1 1 1 1 1 1 1 
1 1 1 1 1 1 1 1 1 
1 1 1 1 1 1 1 1 1 
1 1 1 1 1 1 1 1 1 
1 1 1 1 1 1 1 1 1 
1 1 1 1 1 1 1 1 1 
1 1 1 1 1 1 1 1 1 
1 1 1 1 1 1 1 1 1 
1 1 1 1 1 1 1 1 1 
1 1 1 1 1 1 1 1 1 
1 1 1 1 1 1 1 1 1 
1 1 1 1 1 1 1 1 1 
1 1 1 1 1 1 1 1 1 
1 1 1 1 1 1 1 1 1 
1 1 1 1 1 1 1 1 1 
1 1 1 1 1 1 1 1 1 
1 1 1 1 1 1 1 1 1 
1 1 1 1 1 1 1 1 1 
1 1 1 1 1 1 1 1 1 
1 1 1 1 1 1 1 1 1 
1 1 1 1 1 1 1 1 1 
1 1 1 1 1 1 1 1 1 
1 1 1 1 1 1 1 1 1 
1 1 1 1 1 1 1 1 1 
1 1 1 1 1 1 1 1 1 
1 1 1 1 1 1 1 1 1 
1 1 1 1 1 1 1 1 1 
1 1 1 1 1 1 1 1 1 
1 1 1 1 1 1 1 1 1 
1 1 1 1 1 1 1 1 1 
1 1 1 1 1 1 1 1 1 
1 1 1 1 1 1 1 1 1 
1 1 1 1 1 1 1 1 1 
1 1 1 1 1 1 1 1 1 
1 1 1 1 1 1 1 1 1 
1 1 1 1 1 1 1 1 1 
1 1 1 1 1 1 1 1 1 
1 1 1 1 1 1 1 1 1 
1 1 1 1 1 1 1 1 1 
1 1 1 1 1 1 1 1 1 
1 1 1 1 1 1 1 1 1 
1 1 1 1 1 1 1 1 1 
1 1 1 1 1 1 1 1 1 
1 1 1 1 1 1 1 1 1 
1 1 1 1 1 1 1 1 1 
1 1 1 1 1 1 1 1 1 
1 1 1 1 1 1 1 1 1 
1 1 1 1 1 1 1 1 1 
1 1 1 1 1 1 1 1 1 
1 1 1 1 1 1 1 1 1 
1 1 1 1 1 1 1 1 1 
1 1 1 1 1 1 1 1 1 
1 1 1 1 1 1 1 1 1 
1 1 1 1 1 1 1 1 1 
1 1 1 1 1 1 1 1 1 
1 1 1 1 1 1 1 1 1 
1 1 1 1 1 1 1 1 1 
1 1 1 1 1 1 1 1 1 
1 1 1 1 1 1 1 1 1 
1 1 1 1 1 1 1 1 1 
1 1 1 1 1 1 1 1 1 
1 1 1 1 1 1 1 1 1 
1 1 1 1 1 1 1 1 1 
1 1 1 1 1 1 1 1 1 
1 1 1 1 1 1 1 1 1 
1 1 1 1 1 1 1 1 1 
1 1 1 1 1 1 1 1 1 
1 1 1 1 1 1 1 1 1 
1 1 1 1 1 1 1 1 1 
1 1 1 1 1 1 1 1 1 
1 1 1 1 1 1 1 1 1 
1 1 1 1 1 1 1 1 1 
1 1 1 1 1 1 1 1 1 
1 1 1 1 1 1 1 1 1 
1 1 1 1 1 1 1 1 1 
1 1 1 1 1 1 1 1 1 
1 1 1 1 1 1 1 1 1 
1 1 1 1 1 1 1 1 1 
1 1 1 1 1 1 1 1 1 
1 1 1 1 1 1 1 1 1 
1 1 1 1 1 1 1 1 1 
1 1 1 1 1 1 1 1 1 
1 1 1 1 1 1 1 1 1 
1 1 1 1 1 1 1 1 1 
1 1 1 1 1 1 1 1 1 
1 1 1 1 1 1 1 1 1 
1 1 1 1 1 1 1 1 1 
1 1 1 1 1 1 1 1 1 
1 1 1 1 1 1 1 1 1 
1 1 1 1 1 1 1 1 1 
1 1 1 1 1 1 1 1 1 
1 1 1 1 1 1 1 1 1 
1 1 1 1 1 1 1 1 1 
1 1 1 1 1 1 1 1 1 
1 1 1 1 1 1 1 1 1 
1 1 1 1 1 1 1 1 1 
1 1 1 1 1 1 1 1 1 
1 1 1 1 1 1 1 1 1 
1 1 1 1 1 1 1 1 1 
1 1 1 1 1 1 1 1 1 
1 1 1 1 1 1 1 1 1 
1 1 1 1 1 1 1 1 1 
1 1 1 1 1 1 1 1 1 
1 1 1 1 1 1 1 1 1 
1 1 1 1 1 1 1 1 1 
1 1 1 1 1 1 1 1 1 
1 1 1 1 1 1 1 1 1 
1 1 1 1 1 1 1 1 1 
1 1 1 1 1 1 1 1 1 
1 1 1 1 1 1 1 1 1 
1 1 1 1 1 1 1 1 1 
1 1 1 1 1 1 1 1 1 
1 1 1 1 1 1 1 1 1 
1 1 1 1 1 1 1 1 1 
1 1 1 1 1 1 1 1 1 
1 1 1 1 1 1 1 1 1 
1 1 1 1 1 1 1 1 1 
1 1 1 1 1 1 1 1 1 
1 1 1 1 1 1 1 1 1 
1 1 1 1 1 1 1 1 1 
1 1 1 1 1 1 1 1 1 
1 1 1 1 1 1 1 1 1 
1 1 1 1 1 1 1 1 1 
1 1 1 1 1 1 1 1 1 
1 1 1 1 1 1 1 1 1 
1 1 1 1 1 1 1 1 1 
1 1 1 1 1 1 1 1 1 
1 1 1 1 1 1 1 1 1 
1 1 1 1 1 1 1 1 1 
1 1 1 1 1 1 1 1 1 
1 1 1 1 1 1 1 1 1 
1 1 1 1 1 1 1 1 1 
1 1 1 1 1 1 1 1 1 
1 1 1 1 1 1 1 1 1 
1 1 1 1 1 1 1 1 1 
1 1 1 1 1 1 1 1 1 
1 1 1 1 1 1 1 1 1 
1 1 1 1 1 1 1 1 1 
1 1 1 1 1 1 1 1 1 
1 1 1 1 1 1 1 1 1 
1 1 1 1 1 1 1 1 1 
1 1 1 1 1 1 1 1 1 
1 1 1 1 1 1 1 1 1 
1 1 1 1 1 1 1 1 1 
1 1 1 1 1 1 1 1 1 
1 1 1 1 1 1 1 1 1 
1 1 1 1 1 1 1 1 1 
1 1 1 1 1 1 1 1 1 
1 1 1 1 1 1 1 1 1 
1 1 1 1 1 1 1 1 1 
1 1 1 1 1 1 1 1 1 
1 1 1 1 1 1 1 1 1 
1 1 1 1 1 1 1 1 1 
1 1 1 1 1 1 1 1 1 
1 1 1 1 1 1 1 1 1 
1 1 1 1 1 1 1 1 1 
1 1 1 1 1 1 1 1 1 
1 1 1 1 1 1 1 1 1 
1 1 1 1 1 1 1 1 1 
1 1 1 1 1 1 1 1 1 
1 1 1 1 1 1 1 1 1 
1 1 1 1 1 1 1 1 1 
1 1 1 1 1 1 1 1 1 
1 1 1 1 1 1 1 1 1 
1 1 1 1 1 1 1 1 1 
1 1 1 1 1 1 1 1 1 
1 1 1 1 1 1 1 1 1 
1 1 1 1 1 1 1 1 1 
1 1 1 1 1 1 1 1 1 
1 1 1 1 1 1 1 1 1 
1 1 1 1 1 1 1 1 1 
1 1 1 1 1 1 1 1 1 
1 1 1 1 1 1 1 1 1 
1 1 1 1 1 1 1 1 1 
1 1 1 1 1 1 1 1 1 
1 1 1 1 1 1 1 1 1 
1 1 1 1 1 1 1 1 1 
1 1 1 1 1 1 1 1 1 
1 1 1 1 1 1 1 1 1 
1 1 1 1 1 1 1 1 1 
1 1 1 1 1 1 1 1 1 
1 1 1 1 1 1 1 1 1 
1 1 1 1 1 1 1 1 1 
1 1 1 1 1 1 1 1 1 
1 1 1 1 1 1 1 1 1 
1 1 1 1 1 1 1 1 1 
1 1 1 1 1 1 1 1 1 
1 1 1 1 1 1 1 1 1 
1 1 1 1 1 1 1 1 1 
1 1 1 1 1 1 1 1 1 
1 1 1 1 1 1 1 1 1 
1 1 1 1 1 1 1 1 1 
1 1 1 1 1 1 1 1 1 
1 1 1 1 1 1 1 1 1 
1 1 1 1 1 1 1 1 1 
1 1 1 1 1 1 1 1 1 
1 1 1 1 1 1 1 1 1 
1 1 1 1 1 1 1 1 1 
1 1 1 1 1 1 1 1 1 
1 1 1 1 1 1 1 1 1 
1 1 1 1 1 1 1 1 1 
1 1 1 1 1 1 1 1 1 
1 1 1 1 1 1 1 1 1 
1 1 1 1 1 1 1 1 1 
1 1 1 1 1 1 1 1 1 
1 1 1 1 1 1 1 1 1 
1 1 1 1 1 1 1 1 1 
1 1 1 1 1 1 1 1 1 
1 1 1 1 1 1 1 
GroupIds 1 2230 float
0 0 0 0 0 0 0 0 0 
0 0 0 0 0 0 0 0 0 
0 0 0 0 0 0 0 0 0 
0 0 0 0 0 0 0 0 0 
0 0 0 0 0 0 0 0 0 
0 0 0 0 0 0 0 0 0 
0 0 0 0 0 0 0 0 0 
0 0 0 0 0 0 0 0 0 
0 0 0 0 0 0 0 0 0 
0 0 0 0 0 0 0 0 0 
0 0 0 0 0 0 0 0 0 
0 0 0 0 0 0 0 0 0 
0 0 0 0 0 0 0 0 0 
0 0 0 0 0 0 0 0 0 
0 0 0 0 0 0 0 0 0 
0 0 0 0 0 0 0 0 0 
0 0 0 0 0 0 0 0 0 
0 0 0 0 0 0 0 0 0 
0 0 0 0 0 0 0 0 0 
0 0 0 0 0 0 0 0 0 
0 0 0 0 0 0 0 0 0 
0 0 0 0 0 0 0 0 0 
0 0 0 0 0 0 0 0 0 
0 0 0 0 0 0 0 0 0 
0 0 0 0 0 0 0 0 0 
0 0 0 0 0 0 0 0 0 
0 0 0 0 0 0 0 0 0 
0 0 0 0 0 0 0 0 0 
0 0 0 0 0 0 0 0 0 
0 0 0 0 0 0 0 0 0 
0 0 0 0 0 0 0 0 0 
0 0 0 0 0 0 0 0 0 
0 0 0 0 0 0 0 0 0 
0 0 0 0 0 0 0 0 0 
0 0 0 0 0 0 0 0 0 
0 0 0 0 0 0 0 0 0 
0 0 0 0 0 0 0 0 0 
0 0 0 0 0 0 0 0 0 
0 0 0 0 0 0 0 0 0 
0 0 0 0 0 0 0 0 0 
0 0 0 0 0 0 0 0 0 
0 0 0 0 0 0 0 0 0 
0 0 0 0 0 0 0 0 0 
0 0 0 0 0 0 0 0 0 
0 0 0 0 0 0 0 0 0 
0 0 0 0 0 0 0 0 0 
0 0 0 0 0 0 0 0 0 
0 0 0 0 0 0 0 0 0 
0 0 0 0 0 0 0 0 0 
0 0 0 0 0 0 0 0 0 
0 0 0 0 0 0 0 0 0 
0 0 0 0 0 0 0 0 0 
0 0 0 0 0 0 0 0 0 
0 0 0 0 0 0 0 0 0 
0 0 0 0 0 0 0 0 0 
0 0 0 0 0 0 0 0 0 
0 0 0 0 0 0 0 0 0 
0 0 0 0 0 0 0 0 0 
0 0 0 0 0 0 0 0 0 
0 0 0 0 0 0 0 0 0 
0 0 0 0 0 0 0 0 0 
0 0 0 0 0 0 0 0 0 
0 0 0 0 0 0 0 0 0 
0 0 0 0 0 0 0 0 0 
0 0 0 0 0 0 0 0 0 
0 0 0 0 0 0 0 0 0 
0 0 0 0 0 0 0 0 0 
0 0 0 0 0 0 0 0 0 
0 0 0 0 0 0 0 0 0 
0 0 0 0 0 0 0 0 0 
0 0 0 0 0 0 0 0 0 
0 0 0 0 0 0 0 0 0 
0 0 0 0 0 0 0 0 0 
0 0 0 0 0 0 0 0 0 
0 0 0 0 0 0 0 0 0 
0 0 0 0 0 0 0 0 0 
0 0 0 0 0 0 0 0 0 
0 0 0 0 0 0 0 0 0 
0 0 0 0 0 0 0 0 0 
0 0 0 0 0 0 0 0 0 
0 0 0 0 0 0 0 0 0 
0 0 0 0 0 0 0 0 0 
0 0 0 0 0 0 0 0 0 
0 0 0 0 0 0 0 0 0 
0 0 0 0 0 0 0 0 0 
0 0 0 0 0 0 0 0 0 
0 0 0 0 0 0 0 0 0 
0 0 0 0 0 0 0 0 0 
0 0 0 0 0 0 0 0 0 
0 0 0 0 0 0 0 0 0 
0 0 0 0 0 0 0 0 0 
0 0 0 0 0 0 0 0 0 
0 0 0 0 0 0 0 0 0 
0 0 0 0 0 0 0 0 0 
0 0 0 0 0 0 0 0 0 
0 0 0 0 0 0 0 0 0 
0 0 0 0 0 0 0 0 0 
0 0 0 0 0 0 0 0 0 
0 0 0 0 0 0 0 0 0 
0 0 0 0 0 0 0 0 0 
0 0 0 0 0 0 0 0 0 
0 0 0 0 0 0 0 0 0 
0 0 0 0 0 0 0 0 0 
0 0 0 0 0 0 0 0 0 
0 0 0 0 0 0 0 0 0 
0 0 0 0 0 0 0 0 0 
0 0 0 0 0 0 0 0 0 
0 0 0 0 0 0 0 0 0 
0 0 0 0 0 0 0 0 0 
0 0 0 0 0 0 0 0 0 
0 0 0 0 0 0 0 0 0 
0 0 0 0 0 0 0 0 0 
0 0 0 0 0 0 0 0 0 
0 0 0 0 0 0 0 0 0 
0 0 0 0 0 0 0 0 0 
0 0 0 0 0 0 0 0 0 
0 0 0 0 0 0 0 0 0 
0 0 0 0 0 0 0 0 0 
0 0 0 0 0 0 0 0 0 
0 0 0 0 0 0 0 0 0 
0 0 0 0 0 0 0 0 0 
0 0 0 0 0 0 0 0 0 
0 0 0 0 0 0 0 0 0 
0 0 0 0 0 0 0 0 0 
0 0 0 0 0 0 0 0 0 
0 0 0 0 0 0 0 0 0 
0 0 0 0 0 0 0 0 0 
0 0 0 0 0 0 0 0 0 
0 0 0 0 0 0 0 0 0 
0 0 0 0 0 0 0 0 0 
0 0 0 0 0 0 0 0 0 
0 0 0 0 0 0 0 0 0 
0 0 0 0 0 0 0 0 0 
0 0 0 0 0 0 0 0 0 
0 0 0 0 0 0 0 0 0 
0 0 0 0 0 0 0 0 0 
0 0 0 0 0 0 0 0 0 
0 0 0 0 0 0 0 0 0 
0 0 0 0 0 0 0 0 0 
0 0 0 0 0 0 0 0 0 
0 0 0 0 0 0 0 0 0 
0 0 0 0 0 0 0 0 0 
0 0 0 0 0 0 0 0 0 
0 0 0 0 0 0 0 0 0 
0 0 0 0 0 0 0 0 0 
0 0 0 0 0 0 0 0 0 
0 0 0 0 0 0 0 0 0 
0 0 0 0 0 0 0 0 0 
0 0 0 0 0 0 0 0 0 
0 0 0 0 0 0 0 0 0 
0 0 0 0 0 0 0 0 0 
0 0 0 0 0 0 0 0 0 
0 0 0 0 0 0 0 0 0 
0 0 0 0 0 0 0 0 0 
0 0 0 0 0 0 0 0 0 
0 0 0 0 0 0 0 0 0 
0 0 0 0 0 0 0 0 0 
0 0 0 0 0 0 0 0 0 
0 0 0 0 0 0 0 0 0 
0 0 0 0 0 0 0 0 0 
0 0 0 0 0 0 0 0 0 
0 0 0 0 0 0 0 0 0 
0 0 0 0 0 0 0 0 0 
0 0 0 0 0 0 0 0 0 
0 0 0 0 0 0 0 0 0 
0 0 0 0 0 0 0 0 0 
0 0 0 0 0 0 0 0 0 
0 0 0 0 0 0 0 0 0 
0 0 0 0 0 0 0 0 0 
0 0 0 0 0 0 0 0 0 
0 0 0 0 0 0 0 0 0 
0 0 0 0 0 0 0 0 0 
0 0 0 0 0 0 0 0 0 
0 0 0 0 0 0 0 0 0 
0 0 0 0 0 0 0 0 0 
0 0 0 0 0 0 0 0 0 
0 0 0 0 0 0 0 0 0 
0 0 0 0 0 0 0 0 0 
0 0 0 0 0 0 0 0 0 
0 0 0 0 0 0 0 0 0 
0 0 0 0 0 0 0 0 0 
0 0 0 0 0 0 0 0 0 
0 0 0 0 0 0 0 0 0 
0 0 0 0 0 0 0 0 0 
0 0 0 0 0 0 0 0 0 
0 0 0 0 0 0 0 0 0 
0 0 0 0 0 0 0 0 0 
0 0 0 0 0 0 0 0 0 
0 0 0 0 0 0 0 0 0 
0 0 0 0 0 0 0 0 0 
0 0 0 0 0 0 0 0 0 
0 0 0 0 0 0 0 0 0 
0 0 0 0 0 0 0 0 0 
0 0 0 0 0 0 0 0 0 
0 0 0 0 0 0 0 0 0 
0 0 0 0 0 0 0 0 0 
0 0 0 0 0 0 0 0 0 
0 0 0 0 0 0 0 0 0 
0 0 0 0 0 0 0 0 0 
0 0 0 0 0 0 0 0 0 
0 0 0 0 0 0 0 0 0 
0 0 0 0 0 0 0 0 0 
0 0 0 0 0 0 0 0 0 
0 0 0 0 0 0 0 0 0 
0 0 0 0 0 0 0 0 0 
0 0 0 0 0 0 0 0 0 
0 0 0 0 0 0 0 0 0 
0 0 0 0 0 0 0 0 0 
0 0 0 0 0 0 0 0 0 
0 0 0 0 0 0 0 0 0 
0 0 0 0 0 0 0 0 0 
0 0 0 0 0 0 0 0 0 
0 0 0 0 0 0 0 0 0 
0 0 0 0 0 0 0 0 0 
0 0 0 0 0 0 0 0 0 
0 0 0 0 0 0 0 0 0 
0 0 0 0 0 0 0 0 0 
0 0 0 0 0 0 0 0 0 
0 0 0 0 0 0 0 0 0 
0 0 0 0 0 0 0 0 0 
0 0 0 0 0 0 0 0 0 
0 0 0 0 0 0 0 0 0 
0 0 0 0 0 0 0 0 0 
0 0 0 0 0 0 0 0 0 
0 0 0 0 0 0 0 0 0 
0 0 0 0 0 0 0 0 0 
0 0 0 0 0 0 0 0 0 
0 0 0 0 0 0 0 0 0 
0 0 0 0 0 0 0 0 0 
0 0 0 0 0 0 0 0 0 
0 0 0 0 0 0 0 0 0 
0 0 0 0 0 0 0 0 0 
0 0 0 0 0 0 0 0 0 
0 0 0 0 0 0 0 0 0 
0 0 0 0 0 0 0 0 0 
0 0 0 0 0 0 0 0 0 
0 0 0 0 0 0 0 0 0 
0 0 0 0 0 0 0 0 0 
0 0 0 0 0 0 0 0 0 
0 0 0 0 0 0 0 0 0 
0 0 0 0 0 0 0 0 0 
0 0 0 0 0 0 0 0 0 
0 0 0 0 0 0 0 0 0 
0 0 0 0 0 0 0 0 0 
0 0 0 0 0 0 0 0 0 
0 0 0 0 0 0 0 0 0 
0 0 0 0 0 0 0 0 0 
0 0 0 0 0 0 0 
POINT_DATA 1255
SCALARS scalars float
LOOKUP_TABLE default
-0.474333 -0.342709 -0.42709 -0.622075 -0.385151 -0.740331 -0.638772 -0.23663 -0.240874 
-0.46781 -0.839302 -0.539886 -0.755227 -0.31542 -0.149273 -1.01904 -0.857208 -0.695365 
-0.825507 -0.100777 -0.0221431 -0.21695 -0.0341205 -0.466353 -0.668202 -1.01844 -0.548429 
-0.417366 -0.718234 -0.271993 -0.119376 0 -6.93889e-18 1.38778e-17 -1.25544 -1.31304 
-1.01151 -0.871186 -6.93889e-18 -3.46945e-18 0 3.46945e-18 1.38778e-17 -0.120897 -3.46945e-18 
-0.346582 0 -0.512062 -0.659704 -0.888984 -0.84717 -1.16085 -1.39041 -0.474133 
-0.569564 -0.333496 -0.260766 -0.138369 -6.93889e-18 0 -1.48225 -1.09963 -1.54321 
-1.54656 -1.49992 -1.31384 0 -6.93889e-18 -0.160761 -0.399052 -0.605099 -0.868351 
-1.17992 -0.667104 -0.571241 -0.817056 -1.03285 -1.17435 -1.36184 -1.54659 -1.72717 
-0.483092 -0.176563 -0.0719679 -0.435508 -0.335901 -3.46945e-18 6.93889e-18 -1.62694 -1.74744 
-1.62662 -1.32896 -1.46593 6.93889e-18 -8.67362e-18 -0.131536 -0.275766 -0.65075 -0.501927 
-0.820747 -1.06108 -1.08565 -1.07198 -0.3883 -0.589283 -0.415645 -0.600518 -0.960086 
-1.2337 -1.50367 -1.71 -1.96972 -1.95668 -6.93889e-18 0 -0.0313001 -0.261243 
3.46945e-18 0 -1.60413 -1.86953 -1.11654 -1.3519 1.73472e-18 0 0 
-3.46945e-18 -0.357898 -0.202827 -0.743369 -0.490037 -1.01588 -0.921063 -0.868404 -0.825581 
-0.136345 -0.125221 -0.145493 -0.364752 -0.280147 -0.881928 -0.340329 -0.483807 -0.616142 
-1.07732 -1.39383 -1.66591 -2.19258 -1.77654 -1.97958 -2.16774 0 0 
-3.46945e-18 -1.38778e-17 -1.59863 -1.83483 -2.09392 -1.09036 -0.833265 -1.35556 6.93889e-18 
-0.281837 -0.0889369 -0.677195 -0.53293 -0.692262 -0.612813 -0.577365 -0.0277178 0 
-1.38778e-17 0 0 0 -0.0710667 -0.0797612 -0.201149 -0.838207 -0.107302 
-0.385215 -0.531216 -1.10632 -1.30247 -1.57669 -2.40633 -1.98953 -1.88217 -2.10181 
-2.28262 -1.64512 -1.81607 -1.98302 -2.28346 -1.11976 -0.90013 -0.589717 -1.29684 
-1.52015 -3.46945e-18 -0.0408744 -0.348802 -0.183535 1.04083e-17 0 6.93889e-18 -0.540298 
-0.418831 -0.445666 -0.409327 -0.260584 3.46945e-18 0 0 0 0 
-1.38778e-17 -0.773365 -1.00493 1.38778e-17 0 0 -0.0905075 -0.26574 -0.263022 
-0.56352 -0.731298 -1.55136 -1.26219 -2.47403 -2.57358 -1.82079 -2.1132 -2.11857 
-2.43128 -1.77139 -2.04952 -2.53028 -2.31395 -1.05131 -0.813421 -0.642854 -0.360271 
-0.438576 -1.2387 -1.53482 -3.46945e-18 0 -0.286066 3.46945e-18 6.93889e-18 -0.172813 
-0.306065 -0.299181 -0.225493 -0.013602 -0.168943 0 1.73472e-18 -0.869157 -1.01887 
3.46945e-18 -0.0187016 -0.209436 -0.431679 -0.907833 -0.702353 -0.874848 -1.50062 -1.25872 
-2.74999 -2.15092 -1.64393 -1.95334 -2.37734 -2.60609 -1.81382 -2.10116 -2.5097 
-2.68177 -2.39942 -2.27946 -0.975091 -0.737172 -0.521354 -0.170872 -0.344149 -1.31385 
-1.53769 -1.14419 -1.00951 6.93889e-18 1.38778e-17 -0.056745 -0.143668 -0.0556118 1.73472e-18 
0 1.38778e-17 -1.38778e-17 0 -0.0989785 0 -0.373081 -0.645614 -1.24152 
-0.884404 -1.05688 -0.887899 -1.4696 -1.43291 -2.89905 -2.23314 -1.5126 -1.83535 
-2.1064 -2.45689 -2.66706 -1.86863 -2.27443 -2.15181 -2.03355 -2.56487 -2.76338 
-2.40125 -0.912718 -0.745312 -0.556208 1.38778e-17 -0.0200577 -0.0777613 -0.272827 -1.30471 
-1.71996 -1.47092 -1.04032 0 0 -6.93889e-18 1.38778e-17 0 1.38778e-17 
-0.176494 -0.33415 -3.46945e-18 3.46945e-18 -0.543329 -0.717962 -0.919999 -1.3293 -1.15556 
-2.88586 -2.97988 -2.39386 -1.63043 -2.15207 -1.94191 -2.72399 -1.98952 -2.26522 
-2.19361 -2.58425 -2.89253 -2.6915 -2.46249 -0.75725 -0.484209 -1.73472e-18 0 
0 6.93889e-18 -3.46945e-18 0 -0.144891 -1.3007 -1.92991 -1.74865 -1.46572 
-1.02389 -1.21565 -0.857486 -0.843792 -0.222469 -0.401588 -3.46945e-18 -0.0393541 -0.682324 
-1.28108 -0.91801 -1.32348 -1.48388 -1.3528 -2.98372 -3.09376 -2.45837 -1.76775 
-2.25987 -2.11976 -2.74701 -2.94097 -2.30844 -2.16913 -1.99263 -2.9096 -2.76438 
-2.55271 -2.40338 -0.7178 -0.648371 -0.315546 -6.93889e-18 1.73472e-18 0 -1.88473 
-1.82576 -1.6349 -1.38925 -1.2466 -0.841962 -0.8145 -1.13701 -0.332113 -0.613895 
-6.93889e-18 0 -3.46945e-18 1.38778e-17 -0.289281 -1.17668 -1.53943 -1.57276 -1.45299 
-0.863737 -2.93444 -3.11537 -3.00963 -2.93177 -2.56537 -1.75248 -1.96791 -2.44978 
-2.15521 -2.38039 -2.84601 -2.20284 -2.04041 -1.81163 -2.78417 -2.60202 -2.33609 
-2.43993 -0.544719 1.73472e-17 -0.103716 -0.400387 -1.52429 -1.2941 -1.04563 -0.71994 
-0.608558 -0.56725 1.21431e-17 -0.576105 -0.249602 -0.512492 -1.14177 -1.44605 -1.79908 
-0.842709 -3.05645 -3.16173 -3.09359 -2.92876 -2.7161 -2.74546 -2.11732 -2.70244 
-2.28968 -2.62927 -3.02445 -2.12565 -1.88469 -1.62565 -2.60453 -2.43215 -2.26249 
0 -6.93889e-18 -0.164757 -1.04083e-17 -0.381288 -0.635228 -0.19361 -1.48158 -1.33024 
-1.01511 -1.18608 -0.853974 -8.67362e-18 -0.724443 1.04083e-17 -0.167289 -0.372597 -0.549105 
-0.730065 -1.17982 -1.40911 -1.73449 -2.07945 -2.10764 -0.960653 -2.93923 -3.06198 
-3.05466 -2.76676 -2.46408 -2.54298 -2.92651 -2.86212 -2.39587 -2.38636 -2.47715 
-2.64549 -2.11103 -1.92769 -1.6966 -1.56661 -1.38524 -2.21093 -2.16187 0 
-0.188661 -0.520917 -0.294034 -0.688554 -0.858773 -0.0257763 6.93889e-18 -1.1049 -6.93889e-18 
0 -0.369075 -0.378062 -0.0247134 -1.73472e-18 -0.546999 -0.883938 -1.22399 -1.38941 
-1.36604 -1.60171 -1.84327 -2.0045 -2.2647 -2.07669 -1.20017 -2.96288 -2.82591 
-2.86816 -2.9082 -2.66708 -2.30038 -2.54932 -2.39007 -2.32141 -2.17219 -2.38886 
-2.66827 -2.03578 -1.83474 -1.75212 -1.43213 -1.57687 -1.33954 -2.13397 -1.94824 
-0.00682857 -0.573345 -0.415409 -0.210682 -0.0164931 -0.82971 -1.73472e-18 0 -1.01251 
-1.1991 -0.675527 -0.146092 -0.34253 -0.627152 0 0 -3.46945e-18 0 
-0.843199 -0.868544 -1.00973 -1.38712 -1.64999 -1.35152 -1.8286 -1.93922 -1.10219 
-2.94892 -2.85625 -2.67694 -2.74546 -2.13385 -2.50139 -2.38398 -2.19322 -1.97006 
-2.50046 -2.14184 -2.2592 -1.67372 -1.65179 -1.3626 -1.25742 -1.52534 -1.89118 
-1.79291 0 -8.67362e-19 -0.676774 -0.307275 -0.0175676 1.73472e-18 0 -0.890637 
-1.03967 6.93889e-18 -0.0713412 -0.474311 -0.0387198 -0.26905 -0.617436 -0.810075 -0.579898 
-0.762523 -1.16884 -1.5325 -1.0047 -1.32026 -1.10695 -1.7328 -1.76914 -1.01094 
-2.84877 -2.91625 -2.87667 -2.79315 -2.56049 -2.74433 -2.60365 -2.25375 -1.92986 
-2.5674 -1.64749 -1.96045 -2.40931 -2.24221 -1.37202 -1.71074 -1.42016 -1.20966 
-1.14606 -0.920691 -0.572579 -0.778904 -0.472979 -0.0414697 -0.327447 0 0 
6.93889e-18 0 -3.46945e-18 0 6.93889e-18 -1.38778e-17 0 -0.0207593 -0.308815 
-0.379615 -0.192501 -0.583204 -0.767071 -0.393506 -1.51396 -1.29771 -0.872536 -0.842012 
-1.01151 -2.6802 -2.69586 -2.85766 -2.83034 -2.71672 -2.70309 -2.62649 -2.484 
-2.09503 -2.49882 -2.27857 -1.89642 -1.63666 -2.58556 -1.44173 -1.64085 -1.29982 
-2.06903 -1.82922 -2.1735 -1.15531 -1.319 -1.15225 -0.973826 -0.678787 -0.492191 
-0.858168 -0.151117 0 0 6.93889e-18 -0.238131 0 6.93889e-18 0 
3.46945e-18 -3.46945e-18 -0.165147 -0.138084 -1.38778e-17 6.93889e-18 1.38778e-17 -0.370737 -0.596081 
-0.118308 -1.23849 -0.775852 -0.578476 -0.765755 -1.07604 -0.802693 -2.45032 -2.68362 
-2.44158 -2.34241 -2.52806 -2.27427 -2.34074 -2.23647 -2.14481 -2.40535 -2.52232 
-1.69445 -1.88327 -1.54366 -2.15251 -1.4258 -1.21139 -1.5661 -1.05493 -1.99338 
-1.95273 -1.73666 -1.8391 -1.95618 -1.49054 -1.24561 -1.00922 -1.0352 -0.644128 
-0.395656 -0.231609 -0.840093 -6.93889e-18 6.93889e-18 -6.93889e-18 1.38778e-17 -1.38778e-17 -0.366707 
-0.17378 -0.340605 0 -1.38778e-17 -0.576912 -0.242345 -0.590895 -0.948007 -0.574513 
-0.523505 -0.717653 -2.11162 -2.09096 -2.01793 -1.97158 -2.11783 -2.40366 -2.22202 
-1.98858 -2.51693 -2.34683 -2.19806 -2.18624 -1.68375 -1.94902 -1.88373 -1.72353 
-1.28414 -1.39635 -1.09405 -1.47588 -1.27939 -1.75366 -1.39639 -1.53595 -1.58034 
-1.80632 -1.38224 -1.20112 -0.98872 -0.860938 -0.795368 -0.559544 -0.369202 -0.259947 
-0.0680942 1.04083e-17 -0.0719717 0 -0.402118 -0.178232 -0.0113354 -3.46945e-18 0 
-0.0260762 -0.360665 -0.881459 -0.503596 -0.213747 -0.701129 -1.82527 -1.84571 -1.86166 
-1.78651 -1.7051 -2.3997 -2.07442 -2.20832 -1.86375 -2.2557 -2.18736 -2.10715 
-1.97902 -1.62615 -1.43894 -1.62057 -1.76544 -1.69111 -1.50459 -1.35276 -0.990676 
-1.14376 -1.31105 -1.14604 -1.00505 -1.29004 -1.03003 -1.09359 -1.30242 -1.56568 
-1.32776 -1.27586 -1.14874 -0.945187 -0.802263 -0.72817 -0.286514 -0.514314 -0.00994819 
-6.93889e-18 6.93889e-18 6.93889e-18 3.46945e-18 6.93889e-18 0 -3.46945e-18 -6.93889e-18 -0.0469552 
1.73472e-18 0 -3.46945e-18 -0.391587 -0.202452 6.93889e-18 2.77556e-17 6.93889e-18 -0.856904 
-0.563766 -0.367186 -1.57243 -1.43014 -1.8877 -1.8669 -2.00903 -1.97914 -1.9726 
-1.87133 -1.69461 -1.47868 -1.32984 -1.54215 -1.39 -1.58441 -1.18831 -1.12149 
-1.01491 -0.764623 -0.826695 -1.10586 -0.849161 -0.900427 -0.853018 -1.02729 -1.25802 
-1.12451 -1.06724 -1.04047 -0.857981 -0.138945 -0.733427 -0.486366 -0.197014 -0.311182 
0 0 1.73472e-18 6.93889e-18 0 -0.0976199 3.46945e-18 -0.677189 -0.439484 
-0.238228 -1.20786 -1.73448 -1.75049 -1.52015 -1.52974 -1.68494 -1.72724 -1.45472 
-1.4474 -1.25518 -1.31984 -1.27941 -1.48185 -1.00355 -0.852157 -0.9038 -0.926839 
-0.960354 -0.763758 -0.446741 -0.543686 -0.704272 -0.522317 -0.52595 -0.693856 -0.510221 
-0.877957 -0.964012 -0.99133 -0.743099 -0.961559 0 0 -0.596878 -0.297057 
-0.0761415 0 0 0 -3.46945e-18 -0.381404 -0.199307 6.93889e-18 0 
-0.997422 -1.49735 -1.2912 -1.2532 -1.3567 -1.41444 -1.33629 -1.4089 -1.24049 
-1.17171 -1.18906 -1.11386 -1.23563 -1.32563 -1.20508 -1.01691 -1.28103 -0.808336 
-0.603656 -0.619648 -0.721188 -0.728114 -0.502523 -0.49804 -0.232051 -0.313679 -0.302741 
-0.511028 -0.267869 -0.330959 -0.57523 -0.356274 -0.171813 -0.667322 -0.445341 -0.500978 
-0.842976 -0.647477 -0.437826 -0.207394 0 -6.93889e-18 3.46945e-18 -6.93889e-18 -0.103039 
-6.93889e-18 -6.93889e-18 -0.971525 -0.990045 -1.15498 -1.01056 -1.2081 -1.00064 -1.01667 
-1.01638 -0.836971 -1.07982 -0.83217 -0.531209 -0.402596 -0.39093 -0.452708 -0.444893 
-0.565166 -0.295842 -0.193674 -0.115413 -0.294563 -0.226092 -0.00986793 -0.0930692 -6.93889e-18 
0 -0.0460446 -0.308304 -0.144257 -0.110091 1.38778e-17 6.93889e-18 6.93889e-18 -0.379755 
-0.335264 -0.269279 -0.227363 -0.706898 -0.527988 -0.36582 1.38778e-17 -0.0872245 0 
0 0 0 -0.72271 -0.618565 -0.868764 -0.640372 -0.856135 -0.67252 
-0.665717 -0.967274 -0.879026 -0.728248 -0.485138 -0.648852 -0.30516 -0.273177 -0.262479 
-0.140452 -0.219991 -0.28755 -0.412006 -0.125578 -0.0465473 0 0 6.93889e-18 
6.93889e-18 6.93889e-18 0 0 -1.73472e-18 0 0 0 0 
0 -6.93889e-18 0 -0.0926694 0 0 0 -0.135628 -0.150171 