# vtk DataFile Version 4.2
3D Slicer output. SPACE=LPS
ASCII
DATASET POLYDATA
POINTS 10812 float
-165.916 8.91536 14.914 -165.916 8.99906 14.9664 -165.818 8.99906 14.914 
-165.916 8.49906 14.6431 -166.373 8.49906 14.914 -166.416 8.99906 15.2374 
-165.916 9.49906 15.2487 -165.416 9.34564 14.914 -165.416 8.99906 14.7037 
-166.416 8.45427 14.914 -166.416 7.99906 14.6385 -166.02 7.99906 14.414 
-165.916 8.09747 14.414 -165.416 8.51253 14.414 -166.416 9.31011 15.414 
-166.732 8.99906 15.414 -166.22 9.49906 15.414 -166.916 8.79677 15.414 
-166.916 8.49906 15.2484 -165.916 9.80137 15.414 -165.416 9.49906 15.0016 
-165.701 9.99906 15.414 -165.202 9.49906 14.914 -164.916 8.99906 14.5219 
-164.916 8.80166 14.414 -166.916 8.00162 14.914 -166.715 7.49906 14.414 
-166.916 7.49906 14.5255 -166.416 7.68197 14.414 -165.916 7.99906 14.3567 
-165.916 7.49906 13.994 -165.416 7.99906 14.1217 -164.916 8.49906 14.2494 
-166.916 9.49906 15.809 -166.416 9.49906 15.5203 -166.916 8.99906 15.5166 
-166.416 9.99906 15.8128 -167.186 8.49906 15.414 -167.416 8.99906 15.8103 
-167.416 7.99906 15.2331 -165.916 9.99906 15.5206 -165.416 9.99906 15.2809 
-165.416 10.2326 15.414 -165.916 10.4991 15.8248 -165.416 10.4991 15.5681 
-164.916 9.49906 14.8091 -164.916 9.68887 14.914 -164.916 9.99906 15.081 
-164.581 8.99906 14.414 -164.416 9.49906 14.6301 -164.416 8.49906 14.0998 
-167.416 7.54138 14.914 -166.416 7.49906 14.2596 -166.691 6.99906 13.914 
-166.916 6.99906 14.0319 -166.916 7.38331 14.414 -167.416 6.99906 14.3685 
-165.75 7.49906 13.914 -165.916 7.40167 13.914 -165.416 7.69295 13.914 
-164.865 7.99906 13.914 -164.416 8.19252 13.914 -167.107 9.49906 15.914 
-166.916 9.67354 15.914 -166.586 9.99906 15.914 -167.416 9.19327 15.914 
-166.416 10.1671 15.914 -167.416 8.26991 15.414 -167.416 8.49906 15.5546 
-167.583 8.99906 15.914 -167.687 7.99906 15.414 -167.916 7.75369 15.414 
-167.916 7.49906 15.2138 -166.067 10.4991 15.914 -165.039 10.4991 15.414 
-165.916 10.632 15.914 -165.416 11.0369 15.914 -164.916 10.9991 15.6643 
-164.416 10.0132 14.914 -164.916 10.4991 15.3663 -164.416 10.4991 15.1958 
-164.416 9.09716 14.414 -164.416 8.99906 14.3598 -163.916 9.3779 14.414 
-163.916 9.49906 14.4814 -163.916 9.99906 14.7648 -163.916 8.43376 13.914 
-163.916 8.99906 14.1988 -167.489 6.99906 14.414 -167.916 7.1906 14.914 
-166.416 7.13443 13.914 -166.416 6.99906 13.7966 -166.916 6.49906 13.6256 
-166.916 6.86969 13.914 -167.416 6.50206 13.914 -165.416 7.49906 13.7723 
-165.916 6.99906 13.5916 -164.916 7.49906 13.5977 -164.416 7.99906 13.7927 
-163.916 7.99906 13.6899 -167.416 9.49906 16.0989 -166.916 9.99906 16.1186 
-166.416 10.4991 16.1265 -167.916 8.99906 16.1684 -167.916 7.99906 15.576 
-167.916 8.49906 15.8672 -168.416 7.49906 15.6621 -168.161 7.49906 15.414 
-168.163 6.99906 14.914 -165.916 10.9991 16.178 -164.916 11.3864 15.914 
-165.416 11.4991 16.2446 -164.416 10.8384 15.414 -164.416 10.9991 15.5126 
-164.737 11.4991 15.914 -164.416 11.4991 15.7955 -163.916 10.276 14.914 
-163.916 10.4991 15.039 -164.117 10.9991 15.414 -163.525 9.49906 14.414 
-163.416 9.99906 14.66 -163.773 8.49906 13.914 -163.416 8.99906 14.1011 
-167.916 6.49906 14.2196 -167.916 6.72566 14.414 -167.916 6.99906 14.7045 
-166.501 6.49906 13.414 -166.416 6.54886 13.414 -165.916 6.80703 13.414 
-167.127 5.99906 13.414 -167.416 5.99906 13.6004 -166.916 6.1975 13.414 
-167.871 5.99906 13.914 -165.477 6.99906 13.414 -165.416 7.02789 13.414 
-164.916 7.23673 13.414 -164.416 7.42311 13.414 -164.135 7.49906 13.414 
-163.916 7.49906 13.3779 -163.416 7.65443 13.414 -163.416 7.99906 13.6243 
-167.836 9.49906 16.414 -167.916 9.39516 16.414 -167.416 9.94848 16.414 
-166.916 10.4407 16.414 -166.416 10.9059 16.414 -166.306 10.9991 16.414 
-168.185 8.99906 16.414 -168.416 8.6412 16.414 -168.358 7.99906 15.914 
-168.416 7.90777 15.914 -168.416 8.49906 16.3171 -168.648 7.49906 15.914 
-168.416 7.20494 15.414 -168.416 6.99906 15.2052 -168.416 6.7185 14.914 
-165.916 11.3299 16.414 -165.715 11.4991 16.414 -164.916 11.4991 15.9929 
-165.416 11.7618 16.414 -165.095 11.9991 16.414 -164.416 11.7099 15.914 
-164.916 11.9991 16.3336 -164.416 11.9991 16.0967 -163.916 11.4991 15.6284 
-163.416 10.4923 14.914 -163.916 10.9991 15.3496 -163.416 10.9991 15.2111 
-163.916 11.1105 15.414 -163.416 9.49906 14.3987 -162.916 9.61687 14.414 
-162.916 9.99906 14.6149 -163.395 10.4991 14.914 -162.916 10.4991 14.8523 
-163.416 8.49906 13.8512 -163.416 8.63581 13.914 -162.916 8.72139 13.914 
-162.916 8.99906 14.0576 -162.916 9.49906 14.3481 -168.132 6.49906 14.414 
-168.362 5.99906 14.414 -166.416 5.99906 12.9983 -166.287 5.99906 12.914 
-165.916 6.49906 13.1205 -167.374 5.49906 13.414 -166.916 5.99906 13.2906 
-166.916 5.49906 13.0627 -167.916 5.89835 13.914 -167.916 5.49906 13.8472 
-165.416 6.49674 12.914 -165.408 6.49906 12.914 -164.916 6.99906 13.2285 
-164.416 6.99906 13.0949 -163.916 6.93558 12.914 -163.652 6.99906 12.914 
-163.416 7.49906 13.3008 -162.916 7.74769 13.414 -162.916 7.49906 13.2235 
-162.916 7.99906 13.5784 -162.916 8.49906 13.8091 -167.916 9.49906 16.483 
-167.916 9.99906 16.8506 -168.416 9.47137 16.914 -168.416 8.99906 16.6357 
-167.57 10.4991 16.914 -167.416 10.4991 16.8039 -167.916 10.0898 16.914 
-167.416 10.6749 16.914 -166.916 10.9991 16.7798 -166.416 10.9991 16.4768 
-166.416 11.4991 16.7841 -168.681 8.99906 16.914 -168.916 8.60456 16.914 
-168.515 8.49906 16.414 -168.916 7.92356 16.414 -168.916 7.49906 16.1844 
-168.559 6.99906 15.414 -168.916 6.99906 15.8859 -168.853 6.49906 15.414 
-168.416 6.49906 14.7356 -168.544 6.49906 14.914 -165.916 11.4991 16.5203 
-165.916 11.9991 16.8328 -165.416 11.9991 16.5631 -164.916 12.4991 16.6394 
-164.916 12.1394 16.414 -163.892 11.9991 15.914 -164.428 12.4991 16.414 
-164.416 12.4991 16.4093 -163.916 12.4991 16.2519 -163.416 11.3617 15.414 
-163.416 11.4991 15.4935 -163.416 11.9991 15.8131 -162.916 10.6153 14.914 
-162.916 10.9991 15.115 -162.416 9.71692 14.414 -162.416 9.49906 14.2831 
-162.416 9.99906 14.5745 -162.416 10.4991 14.8226 -162.416 8.83048 13.914 
-162.416 8.49906 13.756 -162.416 8.99906 13.9978 -168.416 5.78248 14.414 
-168.7 5.99906 14.914 -166.416 5.88277 12.914 -165.916 5.99906 12.6813 
-166.416 5.49906 12.6747 -165.916 6.26866 12.914 -167.377 5.24781 13.414 
-167.177 5.21708 13.2608 -166.72 5.49906 12.914 -166.874 5.16636 12.9637 
-166.812 5.15441 12.914 -167.995 5.49906 13.914 -167.916 5.19091 13.8854 
-167.631 5.23299 13.6167 -165.416 5.96064 12.414 -164.916 6.49906 12.7737 
-164.916 6.63303 12.914 -164.416 6.78226 12.914 -163.916 6.49906 12.4813 
-164.416 6.49906 12.6375 -163.416 6.99906 12.871 -163.416 6.49808 12.414 
-162.916 7.12355 12.914 -162.416 7.84712 13.414 -162.416 7.49906 13.1703 
-162.416 7.16804 12.914 -162.416 7.99906 13.5119 -168.398 9.49906 16.914 
-167.99 9.99906 16.914 -168.843 9.49906 17.414 -168.916 9.37612 17.414 
-167.916 10.4991 17.2076 -168.416 9.99906 17.3379 -167.124 10.9991 16.914 
-167.416 10.9991 17.132 -166.916 11.2135 16.914 -166.638 11.4991 16.914 
-166.416 11.7068 16.914 -168.916 8.99906 17.1682 -168.916 8.49906 16.8351 
-168.988 8.49906 16.914 -169.145 8.99906 17.414 -169.305 7.99906 16.914 
-169.416 7.72437 16.914 -169.113 7.49906 16.414 -169.278 6.99906 16.414 
-168.916 6.49906 15.5097 -169.174 6.49906 15.914 -168.916 6.35443 15.414 
-166.059 11.9991 16.914 -165.916 12.1066 16.914 -165.416 12.4624 16.914 
-165.369 12.4991 16.914 -164.916 12.8964 16.914 -164.81 12.9991 16.914 
-164.416 12.9991 16.7042 -163.416 12.1481 15.914 -163.916 12.8008 16.414 
-163.416 12.4991 16.1224 -162.916 11.4989 15.414 -162.916 11.9991 15.7125 
-162.416 10.6838 14.914 -162.416 10.9991 15.0632 -162.916 11.4991 15.414 
-162.416 11.4991 15.3402 -161.916 9.88067 14.414 -161.916 9.49906 14.1965 
-161.916 9.99906 14.4799 -161.916 10.4991 14.756 -161.916 8.93246 13.914 
-161.916 8.49906 13.7096 -168.416 5.49906 14.3747 -168.719 5.49906 14.914 
-168.916 5.99906 15.2618 -165.916 5.60631 12.414 -166.416 5.08411 12.5617 
-166.262 5.07246 12.4522 -166.205 5.06941 12.414 -166.016 5.49906 12.414 
-166.474 5.09325 12.6093 -167.949 5.18018 13.914 -168.416 5.12081 14.414 
-164.916 6.16812 12.414 -165.416 5.49906 12.0553 -164.916 5.99906 12.2473 
-164.416 6.29177 12.414 -163.916 6.42875 12.414 -163.14 6.49906 12.414 
-162.916 6.99906 12.8098 -163.416 5.98273 11.914 -163.916 5.99906 12.0087 
-163.226 5.99906 11.914 -162.416 6.99906 12.7711 -161.916 7.96318 13.414 
-161.916 7.49906 13.1065 -161.916 7.23935 12.914 -161.916 6.99906 12.7218 
-168.916 9.49906 17.514 -168.479 9.99906 17.414 -169.229 9.49906 17.914 
-168.099 10.4991 17.414 -167.916 10.743 17.414 -168.416 10.0802 17.414 
-167.711 10.9991 17.414 -167.416 11.3362 17.414 -167.252 11.4991 17.414 
-166.916 11.4991 17.125 -166.416 11.9991 17.1434 -169.416 8.47984 17.414 
-169.416 7.99906 17.0689 -169.416 8.99906 17.7413 -169.416 9.22048 17.914 
-169.416 7.49906 16.8103 -169.491 7.49906 16.914 -169.655 7.99906 17.414 
-169.818 7.49906 17.414 -169.416 6.99906 16.6108 -169.416 6.58554 16.414 
-169.256 5.99906 15.914 -169.416 5.99906 16.2611 -169.416 6.49906 16.3668 
-169.008 5.99906 15.414 -165.916 12.4991 17.2424 -165.416 12.9991 17.272 
-164.916 12.9991 16.9713 -164.416 13.4424 16.914 -164.916 13.4991 17.1918 
-163.916 12.9991 16.507 -163.916 13.4991 16.7025 -162.916 12.3437 15.914 
-163.594 12.9991 16.414 -162.916 12.4991 15.9991 -163.416 12.9991 16.3691 
-162.916 12.9991 16.2618 -162.416 11.6301 15.414 -162.416 11.9991 15.6253 
-161.916 10.8017 14.914 -161.916 10.9991 15.0109 -161.916 11.4991 15.2719 
-161.613 9.99906 14.414 -161.531 8.99906 13.914 -161.416 9.49906 14.1309 
-161.416 10.4991 14.6723 -161.698 7.99906 13.414 -161.416 8.49906 13.6882 
-168.698 4.99906 14.914 -168.916 5.49906 15.2561 -169.011 5.49906 15.414 
-165.916 5.49906 12.3493 -165.94 5.11753 12.1935 -165.916 5.12016 12.1794 
-168.14 5.03182 14.1374 -168.39 4.99906 14.414 -165.416 5.37821 11.9629 
-165.316 5.39753 11.914 -165.195 5.49906 11.914 -164.916 5.66041 11.914 
[...]
POINT_DATA 10812
SCALARS scalars float
LOOKUP_TABLE default
-4.2538 -4.34429 -4.3623 -3.80368 -3.733 -4.2758 -4.87648 -4.81609 -4.45245 
-3.67965 -3.18433 -3.25886 -3.38485 -3.94764 -4.61702 -4.25878 -4.83933 -4.03781 
-3.70661 -5.20002 -4.97663 -5.44384 -4.96121 -4.28252 -4.06638 -3.134 -2.56707 
-2.54324 -2.83235 -3.2827 -2.74255 -3.39513 -3.73622 -4.82291 -4.82428 -4.25903 
-5.37898 -3.71864 -4.30062 -3.1598 -5.41152 -5.49994 -5.7478 -5.96176 -6.03194 
-4.84123 -5.05111 -5.39206 -4.15521 -4.64696 -3.55157 -2.61506 -2.62237 -1.9746 
-1.9339 -2.40152 -1.91439 -2.78979 -2.63493 -3.03904 -3.14148 -3.20344 -4.83389 
-5.02167 -5.37968 -4.51904 -5.56764 -3.47931 -3.74418 -4.33003 -3.20749 -2.97734 
-2.65904 -5.95304 -6.00338 -6.11227 -6.62298 -6.52303 -5.22078 -5.95333 -5.77268 
-4.2035 -4.09458 -4.35235 -4.48862 -5.05498 -3.31154 -3.92461 -1.91851 -2.24849 
-2.19709 -2.04418 -1.36986 -1.78253 -1.3137 -2.80674 -2.19251 -2.58201 -2.98153 
-2.84091 -4.873 -5.39722 -5.94686 -4.43124 -3.27008 -3.84817 -2.89834 -2.75529 
-2.0778 -6.53651 -6.97657 -7.14706 -6.17091 -6.35692 -7.03732 -6.92261 -5.3644 
-5.61674 -6.26079 -4.40636 -4.94338 -3.34358 -3.81154 -1.35004 -1.62602 -1.98602 
-1.46696 -1.5441 -1.97217 -0.797736 -0.765235 -1.04565 -0.790671 -2.22365 -2.2318 
-2.27245 -2.31227 -2.32273 -2.26846 -2.34903 -2.74254 -4.9901 -4.89671 -5.4139 
-5.91642 -6.42474 -6.53164 -4.55586 -4.26125 -3.44888 -3.37633 -4.0897 -3.06406 
-2.51913 -2.23723 -1.85565 -6.91898 -7.12353 -7.11222 -7.44013 -7.74918 -7.16088 
-7.70886 -7.49939 -6.76678 -5.49069 -6.20045 -6.07467 -6.32787 -4.38769 -4.45585 
-4.88284 -5.49442 -5.42814 -3.2668 -3.41186 -3.44178 -3.74874 -4.32212 -1.42286 
-1.00105 -0.950436 -0.97495 -1.6098 -0.259594 -0.83795 -0.332412 -0.694211 -0.292312 
-1.51799 -1.51805 -1.97918 -1.79434 -1.54887 -1.56075 -2.15969 -2.37833 -2.06745 
-2.67414 -3.20309 -5.02108 -5.63774 -5.22813 -4.6813 -6.12131 -6.08039 -5.74802 
-6.28668 -6.57163 -6.53298 -7.10278 -4.85829 -4.56997 -4.151 -3.73714 -3.26763 
-2.36584 -2.70188 -2.0245 -1.58462 -1.69032 -7.10985 -7.67579 -7.70469 -8.0285 
-7.86741 -7.33483 -7.85713 -7.85332 -7.70468 -6.48742 -6.64536 -7.23691 -5.55875 
-5.98884 -4.51702 -4.26376 -4.84002 -5.39242 -3.50669 -3.14807 -3.69181 -0.823653 
-1.31599 -0.825458 -1.00792 -0.419896 -1.33519 -2.77556e-17 0 -0.37084 -2.77556e-17 
2.77556e-17 -0.317233 -2.77556e-17 2.77556e-17 -0.804868 -1.31878 -1.50845 -1.51779 -0.939915 
-1.12772 -1.50554 -0.833437 -1.58362 -2.42891 -2.00774 -1.59152 -2.60761 -5.25044 
-5.66881 -5.56793 -5.47821 -6.2497 -5.90077 -6.6023 -6.67447 -6.82058 -7.11668 
-7.34123 -5.033 -4.43986 -4.49874 -5.21593 -4.17861 -4.00377 -3.44881 -3.12707 
-2.09803 -2.42235 -1.93308 -7.67627 -7.8037 -8.24693 -8.2154 -7.75439 -7.63812 
-7.48122 -7.41637 -7.46769 -7.37631 -6.56991 -6.99008 -5.59657 -5.94168 -6.57 
-6.51163 -4.64461 -4.20677 -4.77966 -5.34888 -3.58082 -3.11111 -0.564029 -0.940277 
-1.5781 -0.550214 -1.38778e-17 6.93889e-18 -1.38778e-17 -0.441191 0 2.77556e-17 -0.271292 
-0.843749 -0.255467 -0.614734 -0.827391 -0.843577 -0.810994 -1.42249 -0.133782 -0.261543 
-0.132037 -1.37107 -2.50767 -1.95496 -1.633 -1.32608 -5.63527 -5.94623 -5.92239 
-6.35654 -6.5651 -6.01031 -6.79216 -7.10493 -7.26086 -7.16667 -7.69756 -4.87618 
-4.30255 -5.46887 -5.74373 -3.77597 -3.86526 -4.58978 -4.30049 -3.29729 -2.88936 
-2.11548 -2.41822 -2.80151 -1.70241 -8.28558 -7.90395 -7.68179 -7.15363 -7.31966 
-7.31203 -6.91949 -6.93411 -7.21674 -6.90783 -7.16676 -6.82266 -6.57421 -6.52075 
-5.68863 -5.90702 -6.12434 -4.74459 -3.63696 -4.17411 -5.30768 -2.53514 -3.10099 
-0.596274 -1.22741 -1.3678 -0.428625 2.77556e-17 -2.77556e-17 2.77556e-17 -0.168818 0 
-1.38778e-17 -0.164881 -0.186876 -0.16301 -0.406234 -0.79587 -0.111194 -0.753935 -0.132877 
0 0 0 -1.38778e-17 -0.832627 -1.68619 -1.92066 -1.29811 -0.876885 
-6.23289 -6.09871 -6.62811 -6.51112 -6.56383 -7.04629 -6.76272 -6.90874 -7.29692 
-7.31877 -7.59431 -7.76155 -8.08705 -8.30129 -5.30758 -5.60769 -6.31303 -3.57325 
-4.44041 -4.90415 -5.166 -4.02028 -3.29045 -1.81057 -2.55403 -2.25375 -8.30861 
-8.01055 -7.6926 -7.09347 -6.73249 -7.49471 -6.99979 -6.95667 -6.57865 -6.52883 
-6.76666 -6.35632 -6.43767 -7.085 -6.34898 -6.73922 -6.54925 -6.08825 -6.0511 
-6.43698 -5.96349 -5.73933 -5.72168 -5.64789 -4.73272 -3.63629 -3.64457 -4.20346 
-5.32918 -5.26193 -2.52816 -3.12027 0 -2.77556e-17 -0.319784 -0.961219 -1.55943 
-1.06903 0 -1.38778e-17 0 -1.38778e-17 0 0 2.77556e-17 -1.38778e-17 
-1.38778e-17 1.38778e-17 -1.38778e-17 -0.123147 -1.38778e-17 -0.121993 -0.117928 -0.692411 -1.38778e-17 
0 1.38778e-17 -0.655664 -1.67513 -1.94296 -1.32411 -0.854035 -6.29344 -6.64366 
-6.73967 -7.32792 -6.96178 -7.25395 -7.01746 -7.24226 -7.73898 -7.46587 -7.34045 
-7.56962 -7.47501 -7.85847 -7.80402 -8.33372 -8.13901 -5.45171 -6.01888 -6.65902 
-6.76908 -3.70637 -4.76052 -4.47843 -5.03576 -5.75348 -5.49453 -3.00536 -3.59822 
-2.00903 -2.75552 -7.78691 -7.55297 -6.81249 -6.34588 -6.36612 -7.19156 -6.63334 
-6.21271 -6.08239 -5.95295 -5.78833 -5.94531 -5.87401 -6.28085 -5.80308 -6.26123 
-5.60597 -5.57461 -5.48865 -5.23878 -5.16182 -5.12547 -4.76369 -3.62871 -4.27377 
-3.73836 -4.64835 -4.82629 -4.83911 -4.78721 -4.75031 -2.54938 -2.61144 -3.18667 
-3.47378 0 -2.77556e-17 -0.238473 -0.708311 -0.774137 -1.36277 -1.8255 -1.38778e-17 
0 0 0 1.38778e-17 -0.0711186 -0.0986128 -0.693192 -1.62174 -2.00426 
-2.48639 -1.38842 -0.787242 -7.65112 -7.42949 -7.30496 -7.70194 -7.91977 -8.4343 
-8.05675 -8.19824 -8.0404 -7.9315 -7.9578 -8.31601 -8.42283 -8.39288 -8.38391 
-7.90011 -6.44904 -7.12969 -4.21787 -4.90685 -5.19654 -5.3164 -4.65571 -5.58821 
-6.09193 -6.28604 -3.47251 -3.23854 -3.96839 -2.55391 -2.39971 -3.05872 -7.41978 
-6.82636 -6.58131 -6.53641 -6.14061 -6.11657 -5.93756 -5.7355 -6.978 -6.0816 
-5.646 -5.62206 -5.54558 -5.36838 -5.20926 -5.45792 -5.39847 -5.32502 -5.84495 
-5.27956 -5.08422 -5.00395 -4.97816 -4.67422 -4.64729 -4.59717 -4.35111 -3.82009 
-4.51861 -4.44217 -4.34533 -4.31589 -4.26342 -2.68542 -3.26431 -3.36895 0 
0 0 -0.669716 -0.580051 -1.22869 -1.66076 -1.77102 0 -3.46945e-18 
-3.46945e-18 -0.0571757 -0.0338488 -0.779222 -1.47448 -2.0949 -2.41127 -0.746483 -8.01934 
-8.32723 -7.8781 -7.41292 -7.47657 -8.08258 -8.38599 -8.21146 -8.21479 -8.60266 
-8.81358 -9.13144 -8.92218 -8.1619 -8.73983 -8.61099 -8.45641 -8.67976 -8.5725 
-8.03692 -7.71195 -6.74733 -6.94141 -7.47762 -7.80258 -4.54152 -5.48914 -5.23168 
-5.7252 -5.96097 -6.20471 -6.64399 -3.41782 -3.73964 -4.4816 -4.25702 -2.92062 
-2.30002 -3.25085 -7.06878 -6.55816 -6.42631 -6.17201 -5.76167 -5.49945 -5.29826 
-5.22024 -6.69909 -5.53287 -5.10497 -4.93451 -5.08494 -4.76635 -4.90995 -4.67677 
-4.91578 -4.84516 -4.80384 -5.7584 -5.41555 -5.27156 -4.79728 -4.51834 -4.50245 
-4.43074 -4.18719 -4.17221 -4.11548 -4.1829 -3.89129 -3.93585 -3.92713 -3.7701 
-3.80038 -2.72644 -3.31852 -5.55112e-17 -1.14774 -0.541484 -0.395092 -1.48932 -1.71361 
6.93889e-18 0 0 -3.46945e-18 -0.0315573 -0.167386 -1.52364 -2.15733 -2.40674 
-0.912338 -0.714043 -8.7167 -9.03225 -8.15145 -8.76979 -8.67555 -8.51797 -8.8744 
-9.05622 -9.30309 -9.63274 -9.38989 -9.43872 -8.99425 -8.72581 -8.86667 -8.34841 
-8.25944 -7.80032 -7.44305 -6.87556 -7.30561 -7.5745 -7.98411 -8.21009 -8.48176 
-4.98242 -5.70343 -5.63952 -5.63025 -5.98916 -6.40825 -7.02935 -7.12437 -3.57446 
-4.08664 -4.57856 -2.82781 -2.98082 -3.12171 -2.24414 -6.9557 -6.17417 -5.99302 
-5.36927 -5.28823 -5.05177 -4.8568 -4.65619 -6.27261 -5.04696 -4.48264 -4.29861 
-4.62759 -4.52104 -4.167 -4.3609 -4.32118 -4.31632 -4.97672 -4.82549 -4.34532 
-4.03428 -3.94834 -3.61585 -3.55865 -3.92091 -4.07221 -3.34665 -3.7185 -3.62798 
-3.43233 -3.56781 -3.84804 -3.38667 -3.33832 -3.26513 -3.698 -3.22418 -2.79233 
2.77556e-17 -1.1002 -1.25372 -1.07891 -0.480963 -0.171404 2.77556e-17 -1.66961 0 
3.46945e-18 -3.46945e-18 -0.248967 0 -1.50485 -2.21759 -1.63403 -2.35885 -1.02731 
-1.40817 -0.6182 -8.95329 -9.41409 -9.75648 -8.91177 -9.08002 -9.59167 -9.76779 
-9.15067 -9.61331 -8.90655 -9.87479 -8.59823 -8.6933 -8.14468 -8.06119 -7.72067 
-7.31487 -7.65639 -7.82347 -8.34189 -8.64758 -8.84317 -8.89058 -9.1625 -4.76585 
-5.49391 -5.27544 -5.97113 -6.22389 -5.73114 -5.68389 -6.20546 -6.89135 -7.57427 
-3.44702 -3.96299 -4.60392 -4.49009 -2.76334 -3.35962 -3.30082 -2.18541 -2.74894 
-2.39248 -6.92194 -6.57406 -5.78457 -5.54969 -5.03126 -4.81167 -4.5482 -4.3578 
-4.17084 -6.12311 -3.97296 -3.82548 -3.70248 -4.40732 -4.05444 -3.8719 -3.8265 
-3.81717 -3.84876 -4.3053 -3.9219 -3.45585 -3.09936 -3.18714 -3.08319 -3.53813 
-3.02309 -3.32322 -3.2113 -3.31269 -3.18971 -3.06933 -3.01083 -2.82353 -2.80945 
-2.64981 -2.26796 -2.90747 -3.11097 -0.814008 -1.04118 -0.33467 -1.38778e-17 0 
-1.38778e-17 -1.38778e-17 -2.13952 -1.6888 -1.55667 -6.93889e-18 -0.349082 -1.73946 -1.12467 
-1.24969 -0.445433 -9.17669 -9.73029 -10.11 -9.78128 -9.2928 -9.45587 -9.42818 
-9.09798 -9.67362 -9.50957 -8.74957 -8.4387 -10.1167 -10.2094 -8.04668 -8.3783 
-7.63736 -7.76911 -8.2291 -8.45375 -9.06849 -9.01482 -9.30276 -9.01572 -9.55536 
-9.39884 -5.12313 -5.7979 -5.64722 -5.8297 -6.44004 -6.66581 -6.00957 -6.72238 
-6.51998 -7.37456 -7.96622 -3.87924 -4.40666 -5.0136 -4.92351 -3.17391 -3.81119 
-2.68188 -2.5424 -7.22403 -6.85825 -6.19475 -5.4545 -5.35349 -5.0798 -4.94924 
-4.55377 -4.22479 -4.52639 -4.05463 -3.8524 -3.74128 -3.6947 -5.6407 -3.45638 
-3.31593 -3.20682 -3.57964 -3.93493 -3.37475 -3.32869 -3.32088 -3.60744 -3.64353 
-3.83563 -3.76039 -3.53669 -2.94335 -2.88638 -3.03495 -2.94874 -2.60088 -2.56206 
-2.49253 -2.44478 -2.62375 -3.06896 -2.95946 -2.78101 -2.72644 -2.67934 -2.5517 
-2.93415 -2.49216 -2.4051 -2.23282 -2.74808 -2.19296 -2.26452 -2.32433 -2.14652 
-0.928584 -1.06543 -0.879359 -0.255828 0 2.77556e-17 -2.77556e-17 -2.05861 -1.43985 
0 -2.77556e-17 -2.77556e-17 -1.16271 -1.81774 -0.466291 -2.77556e-17 -10.1428 -10.3779 
-10.4637 -10.3655 -10.1795 -9.82261 -8.99402 -8.85263 -9.23173 -9.9284 -10.0476 
-9.50167 -8.32138 -8.11238 -7.69788 -8.03802 -8.66237 -8.61062 -8.86511 -9.28706 
-9.71539 -9.84178 -9.95445 -10.2201 -5.54176 -6.32563 -5.93146 -6.92245 -7.14358 
-6.8999 -7.0337 -7.04355 -6.8274 -7.84284 -7.61359 -4.30739 -4.79269 -5.44408 
-3.01698 -3.65098 -3.58167 -4.29641 -3.87051 -2.43993 -2.1296 -7.46745 -7.05892 
-6.5328 -6.46102 -5.95684 -5.8228 -5.10358 -4.82822 -4.71111 -4.53021 -4.02871 
-3.95758 -3.78752 -3.56961 -3.48758 -3.41921 -3.13879 -5.52926 -2.91278 -2.92866 
-2.87472 -2.92455 -3.08159 -2.95288 -3.45727 -2.985 -2.80463 -3.3083 -3.34263 
-3.36055 -3.27448 -3.45443 -3.51063 -3.19579 -3.42096 -2.85935 -2.33546 -2.02815 
-2.13087 -2.41195 -1.87959 -2.80418 -2.4227 -2.92471 -2.40211 -2.39358 -2.15696 
-2.24114 -1.86034 -1.81534 -1.73339 -1.62606 -2.1176 -2.09913 -0.528375 -0.777353 
-0.160266 1.38778e-17 2.77556e-17 -1.91464 -1.86502 -1.38067 -1.26678 -1.09002 -0.50791 
-1.83098 -0.367664 0 -2.77556e-17 -10.5144 -10.3545 -10.606 -10.6256 -10.881 
-10.0014 -8.81949 -8.56779 -8.50024 -8.91804 -9.08364 -9.77406 -9.86735 -9.36233 
-7.89451 -8.04903 -8.47263 -8.83401 -9.2952 -9.17621 -9.49336 -9.54516 -10.1353 
-10.0843 -10.364 -10.0804 -10.6147 -5.94152 -6.67212 -6.16587 -7.21831 -7.4086 
-7.50723 -7.36891 -7.31593 -7.1652 -8.2818 -8.08151 -7.88013 -5.26984 -4.60409 
-4.13009 -5.93978 -2.84546 -3.48187 -3.94713 -2.38231 -2.20143 -1.74357 -7.04202 
-7.56607 -6.79886 -6.75533 -6.12863 -6.22028 -5.82259 -5.39953 -4.73937 -4.56711 
-4.38062 -4.29067 -3.87166 -3.47782 -3.25799 -3.28775 -3.18405 -3.36044 -2.82425 
-2.60701 -2.60646 -5.65564 -2.36038 -2.75231 -2.63884 -2.52481 -2.99122 -2.94205 
-2.40508 -2.79731 -2.28968 -2.83545 -2.91801 -2.79172 -2.73833 -3.13941 -2.96799 
-2.67559 -2.57369 -1.81174 -1.51477 -1.56424 -1.98023 -1.96242 -1.36429 -1.44637 
-1.30419 -2.46371 -1.85961 -2.25155 -2.27508 -1.78433 -2.09281 -1.60428 -1.73521 
-2.06436 -2.01929 -1.60533 -1.19233 -1.16157 -1.09634 -0.610643 -1.2265 -0.720932 
-0.120242 0 1.38778e-17 -1.38778e-17 -1.09175 -0.875108 -1.21447 -0.183757 -0.565335 
-1.6382 0 1.38778e-17 0 -10.8473 -10.832 -11.2045 -10.8531 -10.1941 
-10.472 -8.3997 -8.1419 -8.6701 -8.49686 -10.0588 -9.50685 -8.95645 -9.06058 
-7.7175 -8.91284 -9.10361 -9.72184 -9.68261 -9.92408 -9.53587 -10.3345 -10.7772 
-10.4339 -11.0219 -10.9605 -11.2927 -6.05798 -6.56609 -7.06502 -7.69453 -7.99428 
-7.53364 -7.6622 -7.5548 -7.74573 -8.72072 -8.52606 -8.34282 -8.17126 -5.07158 
-5.48229 -5.74158 -4.41123 -6.43702 -6.21957 -2.65365 -3.30182 -2.91607 -3.75517 
-2.60314 -2.06935 -1.72288 -1.5585 -7.29624 -6.93964 -6.36724 -5.69456 -5.02355 
-4.83019 -4.54748 -4.25859 -4.03307 -3.74523 -3.6537 -3.52485 -3.18921 -2.92152 
-3.12555 -3.041 -2.70415 -2.4899 -2.0503 -5.07788 -1.83985 -1.87992 -2.18723 
-1.96163 -2.08577 -1.96462 -2.01038 -1.96217 -2.84814 -2.2884 -1.96795 -2.28548 
-2.33009 -1.7715 -2.42271 -3.00901 -2.51186 -2.20468 -2.12217 -2.47715 -2.46465 
-2.46744 -2.42184 -1.29164 -1.50904 -1.38241 -1.03768 -1.0275 -0.900549 -0.948946 
-0.790353 -2.44363 -1.81863 -2.05034 -1.37125 -1.47643 -1.59047 -1.17168 -1.08738 
-1.48263 -1.20783 -1.37266 -1.32427 -0.973381 -0.653428 -0.551611 -0.531554 -0.866694 
-0.564191 -0.130984 -6.93889e-18 0 -1.52407 -0.877032 -0.430033 -0.572044 -1.19856 
-1.3387 0 0 1.38778e-17 -11.4578 -11.5831 -11.1795 -10.7613 -10.3547 
-8.06447 -8.2607 -9.95853 -9.65437 -9.25673 -8.57051 -8.86545 -7.95097 -7.43201 
-9.3541 -9.91871 -10.3594 -9.97611 -10.5655 -10.6118 -11.1909 -11.0939 -11.3896 
-11.6895 -6.89617 -7.34416 -7.81368 -8.46642 -8.30399 -7.97813 -8.02786 -7.79856 
-8.11947 -9.173 -8.97705 -8.81424 -8.64787 -4.87119 -5.04308 -5.33208 -6.00127 
-4.79968 -4.34119 -4.1795 -6.67502 -6.4572 -3.66191 -3.14319 -3.1068 -2.90914 
-2.45651 -2.00857 -1.81723 -1.37508 -6.87702 -6.61455 -6.51846 -5.95225 -5.25231 
-5.30296 -4.8546 -4.34466 -4.49635 -3.99712 -3.86414 -3.65528 -3.46418 -3.32374 
-2.82402 -2.61591 -2.64795 -2.33224 -2.46962 -2.41449 -2.19432 -2.24636 -2.26291 
-1.6937 -1.62641 -5.12272 -1.21846 -1.61008 -1.93041 -1.48525 -1.33086 -1.8164 
-1.70835 -1.82946 -1.76357 -1.8146 -1.9284 -1.58224 -2.01769 -2.01248 -1.69174 
-1.97223 -1.9668 -1.9973 -2.22943 -1.24568 -1.24237 -1.01425 -0.473625 -0.497247 
-0.869171 -0.419245 -0.512279 -0.740352 -0.26041 -0.327315 -1.57603 -1.08866 -1.16362 
-1.27815 -0.797098 -0.757974 -1.05247 -1.56976 -1.29743 -0.51581 -0.617379 -0.937753 
-0.79753 -0.703757 -0.0448464 -0.403544 -2.77556e-17 -2.77556e-17 -1.38778e-17 6.93889e-18 -0.747495 
-0.29685 -2.77556e-17 -2.77556e-17 -0.215984 -1.38778e-17 -1.38778e-17 -0.27826 -0.518583 -11.8709 
-11.4718 -10.8374 -10.6613 -10.8654 -10.2727 -7.8569 -7.56636 -7.92815 -9.56894 
-8.16317 -9.18553 -8.9259 -8.48091 -7.15916 -9.79461 -10.1592 -10.2147 -10.7826 
-10.7082 -10.9862 -10.4175 -10.5921 -11.6071 -11.5456 -11.8356 -11.4038 -11.9665 
-12.099 -12.1889 -7.12382 -7.57747 -8.93158 -8.77346 -8.6503 -8.1671 -8.37462 
-8.25441 -8.03465 -9.61722 -9.56129 -9.30793 -8.99072 -9.10985 -9.1457 -5.1329 
-5.79336 -4.67166 -4.47846 -4.01783 -6.91094 -6.25107 -3.5608 -3.36714 -2.9182 
-2.70392 -2.26467 -2.19905 -1.7139 -1.06884 -1.20982 -6.46219 -6.2346 -6.18518 
-6.09532 -5.49628 -4.6764 -4.57785 -4.32668 -4.03685 -3.90164 -3.51671 -3.22394 
-3.02963 -2.95967 -3.14736 -2.4202 -2.26383 -2.37173 -1.95388 -2.08496 -1.9116 
-1.91924 -2.11427 -1.71328 -1.48524 -1.71606 -1.46893 -1.59885 -1.08544 -4.80893 
-0.982356 -1.0522 -1.13598 -1.1869 -1.21707 -1.22615 -1.18585 -1.63833 -1.52317 
-1.3719 -1.42075 -1.52043 -1.53972 -1.8964 -1.53472 -1.47665 -1.50718 -2.03416 
-0.743771 -1.30028 -0.800659 -0.194091 -1.38778e-17 -1.38778e-17 -0.398636 -5.55112e-17 2.77556e-17 
0 -0.217576 -0.218624 0 -6.93889e-18 -2.77556e-17 2.77556e-17 6.93889e-18 -0.95477 
-0.854852 -1.02118 -1.03501 -1.14976 -0.384431 -0.140459 -1.02214 -0.70703 -0.227938 
5.55112e-17 -0.378521 5.55112e-17 0 -0.0587922 -0.26274 -0.382494 1.38778e-17 3.46945e-18 
6.93889e-18 3.46945e-18 -0.211983 -0.669812 1.38778e-17 0 -0.172242 -0.316137 2.77556e-17 
1.38778e-17 0 2.77556e-17 -0.371509 -0.422302 -11.9283 -11.7726 -11.3691 -11.0606 
-10.8221 -10.4873 -9.97064 -9.89041 -7.74647 -7.31589 -9.74321 -9.36828 -7.77602 
-7.4602 -8.80776 -8.72599 -9.13971 -8.17218 -8.02624 -6.80745 -10.2404 -10.1687 
-9.76567 -11.201 -11.1408 -11.0164 -10.8509 -10.5248 -11.9929 -12.2473 -11.8291 
-12.4315 -12.4992 -12.4885 -7.36814 -7.82595 -9.38654 -9.55678 -9.23913 -9.12135 
-8.48371 -8.93041 -8.7068 -8.49024 -8.86197 -8.2844 -9.44659 -9.90232 -9.28438 
-9.60466 -4.94051 -5.59478 -3.83073 -4.29421 -6.70885 -6.05524 -3.21126 -3.74786 
-3.01942 -2.54956 -2.08656 -1.63199 -0.998246 -6.14829 -5.97545 -5.76354 -5.59623 
-5.27154 -4.12016 -3.78035 -3.41586 -2.77105 -2.61723 -2.82094 -2.54837 -2.32723 
-2.03422 -1.99663 -2.18905 -1.8086 -1.26684 -1.57194 -1.21299 -1.55074 -1.35077 
-0.798202 -0.838997 -1.27501 -0.901381 -0.88383 -0.877543 -4.96915 -4.51964 -4.28179 
-0.641555 -0.420208 -0.837456 -0.656951 -0.507934 -1.05168 -0.489053 -1.06253 -1.22909 
-0.98486 -1.02643 -1.09303 -1.42793 -1.37887 -1.78258 -1.23732 -0.935266 -0.860412 
-1.01667 -1.58913 -0.275991 -0.922838 -0.415976 1.38778e-17 0 6.93889e-18 -6.93889e-18 
-1.38778e-17 -0.162867 -0.435899 -0.79891 0 0 0 -6.93889e-18 0 
-0.910601 -0.443244 -0.58751 -6.93889e-18 1.38778e-17 0 -0.0547526 -6.93889e-18 0 
0 0 0 3.46945e-18 0 -0.559719 -1.38778e-17 0 -1.38778e-17 
-0.37542 1.38778e-17 0 0 -2.77556e-17 -12.1065 -11.685 -10.9773 -11.3006 
-10.5953 -10.2191 -7.07156 -9.84649 -9.51344 -7.58053 -7.19035 -8.43317 -9.45837 
-8.94042 -8.75662 -8.10202 -7.72658 -6.36766 -6.94402 -10.5219 -10.0692 -11.6262 
-11.5908 -11.4492 -10.712 -11.2915 -11.2135 -12.4427 -12.2549 -12.657 -12.8271 
-12.8981 -12.7923 -12.2169 -7.62999 -7.16854 -9.8494 -9.71105 -10.0457 -9.59403 
-9.37491 -9.15251 -8.94185 -8.74399 -8.09331 -9.7333 -10.3495 -10.1853 -4.75928 
-5.40498 -5.27083 -4.25771 -6.51755 -5.87068 -3.65288 -4.12022 -2.9171 -3.49245 
-3.43901 -2.39637 -2.17123 -1.45835 -1.92807 -0.763016 -0.855991 -1.37655 -6.05596 
-5.66397 -5.43964 -5.07 -4.3742 -3.68102 -3.63868 -3.00209 -2.81775 -2.60847 
-2.11399 -2.25467 -1.86937 -1.42352 -1.56201 -1.17392 -1.24788 -1.17038 -0.925901 
-1.10701 -0.864933 -0.996239 -0.512757 -0.714099 -0.689902 -0.234047 -0.266162 -0.25387 
-0.492974 -0.313841 -0.233435 -0.257785 -0.299382 -0.339548 -0.441588 2.77556e-17 -1.38778e-17 
-0.460876 -0.357475 -2.77556e-17 -2.77556e-17 -0.279763 -0.515075 -0.982203 -0.473886 -0.81848 
-0.726262 -0.617334 -1.65141 -1.12611 -0.257138 -0.173398 -0.47474 -0.526749 -1.13055 
-0.692782 6.93889e-18 1.38778e-17 -2.77556e-17 -2.77556e-17 2.42861e-17 -2.08167e-17 0 1.38778e-17 
-0.282187 2.77556e-17 -0.304373 0 0 -0.28925 1.38778e-17 0 -2.77556e-17 
-12.0073 -11.6303 -10.9248 -11.2593 -10.5529 -10.1538 -7.39626 -6.69153 -8.05081 
-8.03746 -8.59663 -9.71377 -9.01729 -9.5096 -8.56066 -7.4702 -7.19644 -6.20658 
-6.48905 -10.9762 -11.1391 -12.0559 -11.8909 -11.7338 -11.6603 -11.5753 -12.8653 
-12.6774 -13.0778 -12.0595 -12.4912 -13.2573 -13.3069 -13.1048 -12.371 -12.7156 
-7.4474 -7.91634 -6.98123 -10.3304 -10.1879 -10.4466 -10.1496 -10.0445 -9.89862 
-9.81884 -9.59969 -9.39624 -8.55914 -9.2059 -8.38772 -10.8141 -10.6524 -4.59039 
-5.22776 -5.06461 -5.79184 -5.6979 -6.33788 -6.80647 -6.29989 -3.96313 -4.43824 
-2.87189 -3.3511 -3.90305 -2.27038 -1.78998 -0.710995 -1.30867 -5.80445 -5.48339 
-5.35511 -5.30929 -4.65609 -3.98427 -3.35631 -3.26158 -3.06552 -2.80601 -2.33069 
-1.66034 -1.63317 -1.95394 -1.33561 -1.06825 -0.889278 -0.714543 -0.928138 -0.646883 
-0.800213 -0.313444 0 -1.38778e-17 -0.100494 -0.274426 -1.38778e-17 -2.77556e-17 0 
0 0 0 0 2.77556e-17 0 0 -1.38778e-17 0 
-0.210275 0 -2.77556e-17 -0.0510257 0 2.77556e-17 0 0 0 
-2.77556e-17 -1.38778e-17 6.93889e-18 1.38778e-17 -6.93889e-18 -0.566406 -0.378975 -0.509484 -1.19026 
-1.08684 -0.994604 -0.0568231 0 -0.0591316 1.38778e-17 0 0 -3.46945e-18 
-1.04083e-17 -0.417015 -0.745447 0 -0.186054 -0.0340321 -1.38778e-17 0 1.38778e-17 
0 -2.77556e-17 -0.240821 -0.101637 0 -12.3357 -11.9489 -11.525 -10.8409 