# vtk DataFile Version 4.2
3D Slicer output. SPACE=LPS
ASCII
DATASET POLYDATA
POINTS 1399 float
-5.89673 -69.9361 -54.451 -4.80855 -70.8796 -54.5252 -5.35574 -71.2705 -54.7132 
-7.60805 -70.4983 -55.0423 -7.41354 -69.9077 -54.8221 -4.81084 -68.8786 -53.6779 
-4.20417 -69.738 -53.9375 -6.73792 -69.1789 -54.3827 -4.33804 -71.8327 -54.6297 
-3.39908 -71.9827 -54.4712 -3.56283 -70.5827 -54.1509 -5.53744 -72.5676 -54.8981 
-6.91283 -72.1327 -55.1719 -7.67907 -71.5827 -55.2608 -7.91283 -70.8827 -55.1837 
-8.92086 -69.8281 -55.1067 -8.76283 -68.6243 -54.5132 -5.36895 -68.4046 -53.5462 
-3.68534 -68.3796 -52.9036 -2.83824 -69.615 -53.4797 -7.77289 -67.7379 -53.6951 
-4.17424 -73.0827 -54.7044 -4.91384 -73.6366 -54.7815 -2.78544 -71.5564 -54.2031 
-1.48783 -72.1827 -53.9786 -2.15974 -70.2827 -53.5406 -7.80359 -72.8077 -55.414 
-5.79751 -73.8412 -54.9227 -8.46283 -72.5827 -55.5907 -9.01283 -71.9077 -55.6083 
-9.26283 -70.818 -55.4879 -10.5467 -69.2985 -55.1302 -10.1075 -68.5942 -54.6994 
-9.93981 -67.6399 -54.0189 -10.7126 -67.8769 -54.2866 -6.24374 -67.3751 -52.9902 
-5.36283 -66.8362 -52.1406 -3.02406 -68.3726 -52.5996 -3.01533 -67.67 -51.9035 
-4.64696 -66.9313 -51.8904 -2.23511 -69.3636 -53.04 -9.10658 -67.3031 -53.5519 
-7.36283 -67.1785 -53.095 -2.76283 -73.4827 -54.3923 -3.56283 -73.9827 -54.5347 
-4.72963 -75.1525 -54.479 -3.26283 -74.7827 -54.3577 -0.562826 -71.2827 -53.3879 
-2.26283 -73.7327 -54.217 -0.351118 -72.4707 -53.7337 -0.462826 -72.9827 -53.8406 
-1.75521 -69.9758 -53.1353 -8.18651 -74.2863 -55.4326 -9.36283 -73.4077 -55.7897 
-6.43431 -75.1397 -54.8803 -7.16283 -75.2827 -54.9852 -10.5596 -72.3077 -55.9198 
-9.96283 -71.7827 -55.7844 -9.66283 -72.7827 -55.8513 -10.7628 -69.7728 -55.375 
-11.4128 -70.8327 -55.7753 -11.9628 -68.8327 -54.9655 -9.74501 -66.6816 -53.0813 
-11.7628 -67.9784 -54.3892 -12.0637 -67.2826 -53.8902 -11.0628 -66.6827 -53.2654 
-6.17202 -66.9829 -52.5827 -5.05024 -66.4771 -51.512 -5.46283 -66.0547 -50.9747 
-1.75219 -68.9174 -52.3017 -2.09561 -68.3014 -51.8373 -4.15522 -66.7221 -51.2962 
-2.46283 -67.2547 -50.5802 -1.97082 -68.0682 -51.4992 -4.53062 -66.2794 -50.6717 
-8.46283 -66.6723 -52.7761 -7.96283 -66.1049 -51.9769 -5.89269 -76.2261 -54.4437 
-4.60533 -76.3388 -54.0735 -2.06283 -74.9827 -54.0107 -3.39985 -75.7827 -54.1225 
0.192958 -71.8763 -53.3894 -0.862826 -70.003 -52.7154 0.339766 -70.6815 -52.8484 
-1.08318 -74.4946 -53.9329 -0.380677 -73.9827 -53.844 0.937175 -72.9327 -53.5815 
0.862175 -73.4827 -53.6215 -1.16283 -69.0549 -52.0199 -8.50989 -75.438 -55.3151 
-9.54564 -75.6327 -55.4854 -9.61283 -73.8702 -55.8126 -6.96283 -76.5827 -54.5918 
-7.63783 -76.6778 -54.7318 -11.3628 -72.8802 -56.0766 -12.3628 -71.9327 -56.0485 
-11.6324 -71.5827 -55.9045 -11.8628 -74.3827 -56.1475 -10.6628 -74.3327 -55.9731 
-11.9628 -69.6245 -55.3611 -12.5123 -70.4709 -55.6902 -12.3878 -71.2236 -55.9009 
-13.7081 -68.8993 -54.7874 -9.56977 -65.8756 -52.1004 -8.76283 -66.0658 -52.2166 
-12.7628 -67.6901 -54.0777 -12.1599 -66.6927 -53.2777 -11.6628 -66.0708 -52.5078 
-11.0628 -65.8486 -52.175 -6.46283 -66.2657 -51.7653 -6.66358 -65.8412 -51.1298 
-6.55268 -65.4568 -50.2902 -5.38075 -65.6651 -49.6902 -1.6885 -68.6922 -51.8759 
-3.46525 -66.655 -50.3902 -1.42692 -67.6739 -50.4997 -1.73195 -67.0976 -49.6146 
-1.76283 -67.7333 -50.6902 -3.36293 -66.4524 -49.2902 -2.16689 -66.8004 -49.3691 
-2.45028 -66.6592 -49.2166 -1.06697 -68.2049 -50.9837 -4.76283 -65.8461 -49.4885 
-7.76283 -65.8509 -51.5759 -8.66283 -65.56 -51.3738 -6.11849 -77.314 -54.0239 
-4.38783 -77.2835 -53.5752 -3.36917 -76.6449 -53.7233 -2.02004 -75.9598 -53.6909 
1.23717 -72.1827 -53.3847 0.410613 -70.0162 -52.3274 -0.462826 -68.8263 -51.5434 
0.537174 -69.5579 -51.8612 1.17768 -70.9784 -52.8473 1.24967 -69.9625 -52.0695 
0.337174 -74.7827 -53.5762 -0.367878 -75.5711 -53.4756 2.28717 -72.6961 -53.332 
2.04863 -73.6055 -53.4504 -9.02017 -76.5707 -55.1377 -9.76283 -76.0827 -55.4216 
-10.7628 -75.678 -55.7533 -7.41994 -77.8296 -54.2037 -8.61283 -77.7827 -54.6113 
-12.7628 -74.4827 -56.2137 -13.3628 -73.0827 -56.2591 -13.3628 -72.2827 -56.1395 
-11.7628 -75.6827 -55.9398 -13.4431 -70.2316 -55.5426 -14.1128 -71.5412 -55.9376 
-14.7803 -69.0216 -54.6416 -14.0972 -68.3133 -54.2785 -14.4628 -70.0271 -55.338 
-10.4975 -65.3449 -51.184 -9.84759 -65.2419 -50.9902 -13.3164 -67.4754 -53.8967 
-12.9128 -66.6585 -53.1172 -12.7628 -65.8096 -51.9354 -11.4992 -65.286 -51.0773 
-7.56283 -65.3329 -50.4692 -6.64417 -65.2508 -49.5971 -6.03494 -65.3367 -48.8402 
-6.81283 -65.1054 -48.7902 -4.26283 -65.9869 -48.3902 -1.62214 -67.1847 -49.6917 
-1.19685 -67.6908 -50.3114 -2.93992 -66.3746 -48.9776 -3.93413 -66.0648 -48.3234 
-4.06876 -66.0059 -48.235 -0.424453 -68.558 -51.221 -8.86283 -65.1563 -50.5452 
-7.76533 -78.5076 -53.9084 -4.96283 -78.2587 -52.9952 -2.60759 -77.6006 -52.9051 
-1.16283 -77.1691 -52.9131 0.0320935 -76.0872 -53.2758 2.13717 -72.0158 -53.111 
0.337174 -69.1045 -51.4161 0.739504 -69.1894 -51.1976 0.858055 -69.2957 -51.2427 
1.28717 -69.4153 -51.4902 2.08717 -70.9719 -52.5909 2.23717 -69.735 -51.8101 
2.93718 -70.9461 -52.4946 2.53717 -74.5827 -53.3837 2.22195 -75.2881 -53.2938 
0.937175 -75.7563 -53.2954 2.88718 -72.7658 -53.3206 2.63718 -73.2827 -53.4012 
-9.16283 -78.0827 -54.5957 -9.45952 -77.3132 -55.0158 -10.3628 -76.8827 -55.3902 
-11.9878 -76.8157 -55.6657 -12.4378 -76.5702 -55.7878 -8.57376 -78.8955 -53.904 
-13.7128 -74.8827 -56.2301 -12.9517 -75.5755 -56.0688 -14.0801 -73.7827 -56.2906 
-15.4878 -72.5425 -56.0965 -14.9214 -71.0641 -55.706 -16.2128 -71.8438 -55.853 
-16.1755 -69.2681 -54.698 -15.6128 -68.3179 -54.0705 -14.8253 -68.1404 -54.0546 
-15.4082 -70.3159 -55.3208 -11.0628 -64.8724 -50.1228 -9.96283 -64.8997 -50.0817 
-14.4708 -66.5684 -52.6064 -14.7342 -67.4081 -53.4125 -13.6183 -66.2758 -52.4995 
-13.3684 -65.3585 -50.8154 -12.6628 -65.1537 -50.5602 -7.76283 -65.0319 -49.6813 
-5.86283 -65.389 -48.2402 -7.22166 -65.0778 -47.7905 -7.95532 -64.8991 -49.1733 
-4.51488 -65.8985 -47.9402 -4.34475 -65.9368 -48.0249 -1.52166 -67.2669 -49.7621 
-1.07181 -67.7509 -50.0975 -0.763334 -67.9202 -50.3196 -1.15464 -67.6161 -50.0209 
-0.318895 -68.276 -50.6902 0.310746 -68.7627 -51.0137 -0.210897 -68.3379 -50.711 
-9.16283 -64.6857 -48.9619 -6.49982 -78.9289 -53.0184 -3.18312 -78.1927 -52.4753 
-5.06283 -78.9411 -52.325 -0.957294 -77.6754 -52.4916 -1.80727 -78.0593 -52.2665 
0.847091 -77.0306 -52.7127 2.78718 -71.5691 -52.8616 3.38718 -72.3616 -53.2142 
0.553247 -68.9844 -51.1343 1.18497 -69.3615 -51.3734 1.31121 -69.3822 -51.4261 
1.50703 -69.3487 -51.4632 2.83717 -69.4827 -51.5685 2.40366 -69.3476 -51.5472 
3.88718 -70.1189 -52.0606 3.51218 -71.1769 -52.7088 3.63718 -74.3327 -53.5397 
2.98717 -75.7949 -53.1435 1.98717 -75.9008 -53.122 4.03718 -73.0827 -53.5699 
-9.31283 -79.7071 -53.4862 -9.91611 -79.3086 -53.985 -11.0628 -78.9201 -54.5099 
-10.3425 -78.0392 -54.8835 -11.5628 -77.8827 -55.1745 -12.6628 -78.1433 -55.2299 
-13.6628 -77.2411 -55.7228 -13.9628 -76.2827 -56.0132 -7.76293 -79.6937 -52.8298 
-14.5378 -75.0077 -56.2135 -14.9128 -73.8077 -56.2426 -16.5378 -72.354 -55.979 
-16.2628 -73.9827 -56.2105 -16.5628 -71.0553 -55.5703 -16.9518 -69.6719 -54.8874 
-16.4628 -68.7596 -54.2666 -15.4408 -67.8893 -53.8902 -15.8628 -68.0694 -53.8902 
-10.2628 -64.7478 -49.5902 -11.9628 -64.8779 -49.9049 -12.2378 -64.7906 -49.2902 
-15.3644 -66.911 -52.764 -15.1628 -66.2687 -51.9094 -15.8628 -67.9062 -53.6621 
-16.4128 -67.3382 -53.0003 -15.2628 -65.848 -50.9801 -13.1001 -65.0787 -50.1063 
-14.0128 -65.122 -49.4902 -14.6718 -65.3838 -50.0001 -5.02821 -65.7655 -47.4983 
-6.16283 -65.4568 -46.9012 -5.98373 -65.5908 -46.754 -5.72024 -65.704 -46.9926 
-8.16283 -64.7982 -48.0902 -7.75827 -65.105 -47.2765 -4.64156 -65.8692 -47.7988 
-4.52443 -65.9062 -47.8918 -0.341866 -68.2441 -50.6305 -0.31574 -68.2747 -50.6503 
-0.26664 -68.3064 -50.6776 -11.2128 -64.6328 -48.9902 -10.2628 -64.5799 -47.7902 
-9.17362 -64.6817 -47.5178 -7.00606 -79.5069 -52.6841 -2.96532 -78.7319 -51.717 
-4.64207 -79.538 -51.2773 -5.78588 -79.9748 -51.2665 -6.86283 -80.0718 -51.8181 
-2.91283 -79.1121 -51.168 -0.430451 -78.168 -51.9794 1.03717 -77.9794 -51.8859 
-1.90658 -79.1029 -50.9681 -0.943565 -79.107 -50.9075 1.73717 -76.7673 -52.7226 
1.56217 -77.2116 -52.4544 4.46215 -72.8827 -53.6303 4.63718 -71.4625 -53.1008 
2.7288 -69.3217 -51.4846 3.02999 -69.239 -51.3971 4.53718 -69.5066 -51.4709 
5.03718 -69.9361 -52.0664 4.65721 -70.6521 -52.5983 4.63718 -73.0833 -53.7183 
4.80098 -74.2827 -53.862 3.73718 -75.1827 -53.4062 3.53718 -76.1994 -52.966 
3.53718 -76.8023 -52.6658 -8.70728 -80.3511 -52.5505 -10.8323 -80.6827 -53.0994 
-11.0742 -79.3898 -54.1484 -11.5712 -80.7007 -53.3068 -11.5813 -78.7329 -54.669 
-12.7628 -78.5079 -55.1081 -14.1628 -78.6282 -55.2094 -15.7378 -77.3077 -55.7804 
-15.0628 -76.2827 -56.0533 -7.17949 -80.3301 -51.557 -15.5628 -75.8827 -56.1246 
-16.9628 -74.6827 -56.1668 -17.4253 -73.0181 -56.1182 -17.4628 -72.1827 -55.9817 
-17.7786 -71.4651 -55.8924 -16.6628 -73.9327 -56.1617 -17.5538 -70.8827 -55.6683 
-17.3628 -70.1387 -55.2427 -17.7804 -69.5454 -54.896 -17.4628 -68.9702 -54.4531 
-17.4628 -69.9517 -55.0858 -17.4354 -68.2783 -54.0835 -16.3628 -67.7049 -53.4585 
-11.5128 -64.6055 -48.5902 -12.6628 -64.7339 -48.3902 -16.5158 -66.9173 -52.4833 
-16.8128 -66.5622 -51.7491 -17.5628 -67.895 -53.6346 -17.4128 -67.0441 -52.5778 
-17.7628 -67.4545 -53.1756 -15.9628 -65.7977 -50.1902 -16.6876 -66.1409 -50.7776 
-15.7373 -65.6361 -49.5787 -15.2628 -65.3753 -48.9902 -14.0878 -65.0032 -48.0402 
-13.1163 -64.8346 -47.4652 -6.19873 -65.5789 -46.6101 -6.36889 -65.4692 -46.4513 
-6.89199 -65.3609 -46.0484 -7.02386 -65.2844 -46.2071 -8.63377 -64.9297 -46.8015 
-10.8628 -64.6721 -46.8406 -9.46283 -64.8462 -46.3502 -4.15002 -79.9442 -50.0941 
-5.24564 -80.4124 -49.5993 -7.28544 -80.8803 -50.4845 -6.98369 -80.4639 -51.1542 
-3.06537 -79.6285 -50.2266 -1.92533 -79.6489 -49.896 -0.0628257 -79.1098 -50.7768 
[...]
POINT_DATA 1399
SCALARS scalars float
LOOKUP_TABLE default
-6.91088 -6.48439 -7.1403 -8.67641 -8.1557 -5.34546 -5.30229 -7.16806 -6.62239 
-5.97288 -5.27327 -7.9575 -8.89094 -9.28212 -9.12512 -9.19556 -8.25148 -5.50382 
-3.9244 -4.01455 -6.79754 -7.19476 -8.0432 -5.20754 -4.63114 -3.83282 -9.97674 
-8.83045 -10.4571 -10.5457 -10.0799 -10.0136 -9.21065 -8.35968 -9.09209 -5.27263 
-4.00003 -3.25241 -2.64223 -3.43023 -3.23675 -7.42054 -5.97047 -6.39641 -7.26731 
-8.75187 -7.56381 -3.24741 -6.20358 -4.15909 -4.64401 -3.18674 -11.0043 -11.6041 
-10.0256 -10.659 -11.8506 -11.1459 -11.5406 -10.4857 -11.3041 -10.534 -7.35534 
-9.84275 -9.35246 -8.31496 -4.83162 -3.26819 -3.03699 -2.28263 -2.06313 -2.64954 
-1.22263 -1.70024 -2.27249 -6.3255 -5.34237 -10.2231 -9.39034 -6.96527 -8.30222 
-3.33365 -2.34989 -2.12116 -6.12884 -5.42742 -4.14448 -4.64569 -1.73274 -11.834 
-12.3318 -12.0226 -11.2206 -11.7863 -11.6896 -10.6072 -11.2289 -11.0526 -12.2367 
-10.5946 -10.1621 -10.4224 -8.7843 -6.4146 -6.01915 -9.72233 -8.67196 -7.7402 
-7.27531 -4.26798 -3.87566 -3.16583 -1.97438 -1.89105 -1.52096 -0.554889 0 
-0.928993 -0.503743 5.55112e-17 2.77556e-17 -0.738665 -1.43338 -4.89626 -5.28454 -11.0256 
-9.87223 -8.8556 -7.65087 -3.39385 -1.35523 -0.877776 -0.748338 -2.12052 -0.85125 
-5.86102 -6.69232 -3.76881 -4.63657 -11.9288 -11.8773 -11.5984 -11.5593 -11.0873 
-10.1545 -9.69199 -9.70769 -10.8477 -9.19904 -8.81266 -7.71305 -8.37663 -8.14809 
-6.17 -5.70554 -9.15636 -8.67608 -7.40652 -6.26579 -3.91791 -2.6974 -1.73269 
-2.1867 -0.24082 1.38778e-17 -0.266079 2.77556e-17 1.38778e-17 1.38778e-17 -0.552836 -4.77053 
-10.8029 -10.8709 -9.15473 -8.25466 -7.03521 -3.06617 -0.375561 -2.77556e-17 2.77556e-17 
-0.076104 -1.90584 -0.444668 -1.91152 -5.52894 -6.16236 -6.62149 -3.87075 -4.34124 
-10.5888 -11.153 -10.9639 -10.0457 -9.85733 -10.0738 -9.1672 -9.84422 -8.92781 
-7.64246 -7.89961 -6.81222 -6.33742 -6.86204 -7.65024 -7.25222 -5.25603 -4.99584 
-7.91645 -7.70779 -8.20274 -6.46859 -6.03941 -3.45039 -1.15142 -1.63394 -3.18381 
-0.0355716 0 0 -2.77556e-17 1.38778e-17 -2.77556e-17 -0.0365732 -2.77556e-17 -6.93889e-18 
-3.70884 -11.005 -9.86587 -11.4119 -8.61457 -9.19858 -7.73514 -2.59982 -3.55519 
-2.77556e-17 6.93889e-18 0 0 -0.201677 -5.55112e-17 -1.33101 -2.34913 -5.48767 
-6.65326 -6.71048 -4.49097 -8.93754 -9.09205 -8.936 -10.0975 -9.45866 -8.5969 
-8.48602 -8.65327 -9.62663 -8.33556 -8.09385 -6.58554 -6.73823 -6.29167 -5.61079 
-6.01836 -7.03932 -6.6157 -4.58895 -5.2454 -4.73225 -7.03494 -7.18532 -6.61667 
-6.0112 -6.515 -5.72391 -5.35372 -5.8446 1.38778e-17 -0.258745 -2.77556e-17 -5.55112e-17 
-2.4521 -1.50033 3.46945e-18 -6.93889e-18 6.93889e-18 0 0 -4.2162 -2.87668 
-2.38188 -10.1925 -10.2074 -11.1875 -10.2432 -9.63305 -10.5321 -8.92853 -8.57772 
-10.1853 -9.94379 -7.4767 -7.86655 -4.48205 -3.18678 0 0 -0.973652 
-1.84263 -2.36169 -4.74518 -5.86165 -6.24686 -7.07294 -7.60748 -8.49708 -7.27631 
-8.51722 -6.98548 -8.73909 -8.26048 -7.35354 -6.6178 -7.68608 -9.15501 -7.23584 
-5.98093 -5.66441 -5.64725 -5.21406 -6.33895 -5.30525 -5.29451 -4.77449 -5.02892 
-5.15407 -5.03934 -6.09929 -3.90652 -4.00339 -5.87533 -5.53976 -4.91773 -4.98759 
-4.67651 -5.58515 -5.61912 -5.10015 -4.74945 -3.98362 -3.24641 0 0 
2.77556e-17 -0.231227 -1.51178 -2.08527 -1.29496 -10.5943 -9.41118 -8.3536 -9.06898 
-10.4351 -10.0462 -9.80068 -8.98362 -8.30187 -9.90051 -8.07286 -8.40133 -4.7352 
-3.20982 2.77556e-17 4.16334e-17 -0.272019 -1.1626 -1.83594 -3.96595 -3.33228 -1.20689 
-5.03588 -6.30952 -6.80331 -7.16242 -8.11506 -8.9411 -7.2307 -7.31555 -6.36424 
-6.06561 -8.13553 -6.52093 -6.26915 -5.29694 -6.03845 -7.50635 -7.44065 -6.1722 
-6.55796 -6.03542 -6.39651 -7.58035 -5.62664 -4.98875 -5.01003 -4.58453 -4.88878 
-4.36365 -4.72033 -4.06588 -3.88362 -3.65514 -4.51164 -2.68991 -2.03548 -4.87194 
-3.05061 -3.80182 -3.46883 -4.93744 -4.49673 -4.49386 -3.79552 -3.88203 -2.83512 
0 -0.147226 -0.496776 2.77556e-17 -0.125019 -0.650331 -1.4778 2.77556e-17 2.77556e-17 
-9.57555 -9.33231 -8.35066 -7.20161 -7.12338 -9.4898 -9.93717 -9.63668 -8.96829 
-9.01351 -9.07151 -8.88872 -5.79299 -5.75074 1.38778e-17 2.77556e-17 -0.213963 -1.63172 
-1.95896 -2.92254 -4.214 -4.78616 -5.2248 -7.16809 -8.29506 -8.43448 -9.2405 
-9.17772 -9.68352 -6.57085 -4.76075 -5.18594 -4.77123 -5.3958 -5.96301 -5.49433 
-4.45975 -4.61676 -4.0824 -5.42924 -5.08047 -5.25373 -4.52786 -3.74502 -4.88333 
-4.03051 -3.72903 -3.25454 -3.96276 -3.50179 -4.0137 -2.88764 -3.91571 -2.88982 
-3.35776 -3.31422 -3.05184 -0.238321 -1.26925 -2.15538 -3.11615 -2.31419 -2.19225 
-2.43607 -2.64377 -4.45413 -4.19252 -3.62035 -3.42595 -3.26109 -3.086 0 
1.38778e-17 0 0 -0.189341 -8.84844 -9.00505 -7.71921 -7.15952 -5.98943 
-5.60084 -5.12221 -8.82331 -9.88897 -10.241 -9.33275 -9.40176 -8.04553 -8.33358 
-8.27122 -10.4137 -5.60279 -6.25037 -6.19738 -1.38778e-17 -0.0469971 0 -0.677494 
-0.789487 -3.04535 -2.06511 -4.21716 -3.50914 -7.58263 -6.70826 -7.05034 -7.62391 
-7.25945 -7.67951 -9.54397 -10.0214 -3.4554 -3.65549 -5.04882 -4.23933 -3.62047 
-3.19126 -2.44692 -3.60023 -3.59836 -3.24633 -2.65282 -2.76363 -3.73894 -2.72601 
-2.20332 -2.6032 -2.8043 -2.29343 -1.65792 -1.20548 -1.35977 -2.48902 -2.10149 
-2.06325 -0.373778 -2.77556e-17 2.77556e-17 -2.77556e-17 -1.33396 -2.38952 -2.40456 -1.97009 
-2.02189 -1.10864 -1.41993 -0.859199 -1.23294 -3.73525 -3.76252 -3.43523 -2.81128 
-2.97342 -2.43316 -1.22702 -1.72584 0 0 0 -7.88096 -7.88349 
-8.46995 -8.00413 -7.52883 -5.88089 -6.76221 -5.05598 -4.57011 -4.10005 -10.443 
-9.34111 -8.59443 -7.29559 -7.73289 -7.5759 -7.36571 -8.41909 -9.62317 -5.26367 
-6.22454 -5.88665 -0.155606 0 6.93889e-18 0 0 -0.209418 -2.36201 
-1.62098 -0.818213 -2.27336 -3.59773 -6.30195 -5.87355 -6.20348 -4.8224 -4.78325 
-5.43974 -6.33839 -8.28543 -7.76865 -9.2937 -2.78904 -2.984 -2.93134 -1.79603 
-2.32037 -1.05861 -1.07124 -1.02597 -2.70432 -2.79432 -2.5832 -1.91091 -1.53654 
-1.64689 -1.07633 -1.715 -1.5045 -1.93307 -1.49611 -2.14053 -0.87169 -0.127206 
-0.150839 -1.05091 -1.01438 -1.41285 -0.448367 -2.77556e-17 2.77556e-17 -1.64632 -1.09854 
-1.74107 -1.90212 -1.39362 -0.921391 -0.423467 -0.537232 -0.19625 -0.867964 -0.050976 
-3.33879 -3.47678 -2.944 -2.4039 -2.11128 -1.21778 -0.456892 -0.607901 -0.664534 
-7.01654 -6.71499 -7.26908 -7.03161 -6.72253 -5.19907 -4.66732 -5.16357 -3.3793 
-3.40597 -4.18664 -3.43426 -3.97234 -8.60369 -7.93547 -7.91288 -7.1376 -6.83511 
-6.63286 -6.36107 -6.53578 -7.1421 -8.5869 -4.377 -4.92558 -2.77556e-17 0 
-1.38778e-17 1.38778e-17 0 -1.38778e-17 -0.308997 -1.85632 -1.41964 -0.253921 -0.511002 
-0.321524 -1.46845 -3.33611 -5.3614 -4.334 -4.43526 -4.51149 -3.3687 -2.52292 
-3.04088 -4.00595 -5.0961 -6.4236 -6.15811 -7.77653 -8.54013 -8.13425 -1.54172 
-1.37217 -2.16872 -1.44727 -5.55112e-17 -5.55112e-17 6.93889e-18 6.93889e-18 0 -0.385968 
-2.77556e-17 -5.55112e-17 -2.44441 -1.16576 -1.08703 -1.11686 -0.428048 -0.530632 -0.737869 
-0.67707 -0.254609 -0.736474 -1.00183 -0.117067 -0.0648158 0 -1.38778e-17 0 
0 -1.38778e-17 -1.38778e-17 -0.149909 5.55112e-17 0 1.38778e-17 5.55112e-17 -0.0480578 
5.55112e-17 0 0 -0.0274519 -0.692337 -1.7872 -3.1342 -0.163508 0 
-2.77556e-17 0 -2.77556e-17 1.38778e-17 2.77556e-17 0 -2.77556e-17 0 0 
-2.44078 -1.88921 -1.52949 -1.25818 0 0 0 0 -0.139064 
1.38778e-17 -6.50163 -5.94098 -5.64114 -6.60079 -5.3084 -5.39978 -4.39968 -3.58327 
-4.86004 -2.60405 -2.59401 -2.28418 -2.14135 -2.97354 -7.05864 -7.48707 -6.12374 
-6.00171 -5.56742 -5.51276 -7.66104 -3.74695 0 -0.114339 -0.12343 -0.267731 
-0.309544 0 0 0 -0.194985 1.38778e-17 0 -0.462712 -0.704559 
-1.70668 -0.577461 -2.72771 -2.56148 -3.2545 -3.44158 -3.37754 -2.26819 -2.50392 
-1.7722 -0.704011 -4.19929 -3.33225 -2.6912 -4.2857 -6.0676 -7.15558 -7.24091 
-6.3027 -6.27921 -0.753826 -1.51284 -1.91689 -8.32667e-17 0 0 0 
-0.282334 -0.722894 5.55112e-17 -0.47743 -0.119569 -0.191233 -0.187715 -0.157899 0 
0 -0.0185523 -2.77556e-17 -1.73472e-18 -5.55112e-17 2.77556e-17 0 -0.234099 -2.77556e-17 
1.38778e-17 0 -1.38778e-17 0 -6.93889e-18 0 0 -3.46945e-18 -2.77556e-17 
-1.38778e-17 -0.0893165 -0.412012 -2.3274 -0.471657 -1.64625 2.77556e-17 -1.38778e-17 -1.72671 
-1.2934 -1.0947 -0.457374 -0.0503079 0 -6.93889e-18 0 -5.92294 -5.10712 
-5.1467 -5.33241 -5.09292 -5.10043 -4.68725 -4.57 -4.53716 -4.75249 -3.70269 
-3.2854 -2.1406 -2.58711 -3.50734 -1.15434 -1.28078 -0.275879 -1.64266 -6.31631 
-5.93042 -5.33095 -5.12069 -4.57429 -5.02541 -4.61582 -6.42481 -2.37966 6.93889e-18 
-6.93889e-18 0 -0.0334744 0 -1.38778e-17 1.38778e-17 2.77556e-17 -0.0187795 -0.180342 
-0.245958 -2.24501 2.77556e-17 -0.181468 -1.16119 2.77556e-17 2.77556e-17 -2.16149 -1.13951 
-1.53312 -1.34305 -2.33437 -0.793633 -0.476867 -0.986558 -0.490901 -0.314551 -1.38778e-17 
-0.362996 -2.77556e-17 -2.75639 -2.78253 -1.39007 -1.32165 -2.65264 -3.3697 -5.85927 
-4.13119 -6.32764 -6.09381 -4.87717 -5.06769 -5.40674 6.93889e-18 0 -0.0910271 
-0.389598 0 2.08167e-17 -2.77556e-17 0 2.77556e-17 -5.55112e-17 -2.77556e-17 -2.77556e-17 
0 0 -1.38778e-17 0 -1.38778e-17 -1.38778e-17 0 0 3.46945e-18 
0 0 0 0 -2.77556e-17 0 0 0 -1.77404 
2.77556e-17 -0.0141839 -1.12172 -1.115 -0.855516 -0.494703 -0.0803456 0 0 
-4.15408 -4.09938 -4.14817 -3.6875 -3.78036 -3.46392 -3.25443 -3.61238 -2.32722 
-2.09787 -0.839057 -0.568569 -1.23446 -3.33006 -2.61659 -0.109956 2.77556e-17 2.77556e-17 
0 0 -1.38778e-17 0 2.77556e-17 -5.02914 -4.99602 -4.84845 -4.58562 
-3.73161 -3.6028 -3.60008 -4.04494 -4.34776 -3.5785 -1.09354 0 0 
0 3.46945e-18 0 -1.38778e-17 -1.38778e-17 1.38778e-17 0 -1.38778e-17 1.38778e-17 
0 -5.55112e-17 -0.549667 -0.490001 -0.507433 -0.71217 -0.290153 -0.291766 -0.294945 
-1.38778e-17 -0.14073 -2.77556e-17 -0.250865 -0.294477 -0.170688 1.38778e-17 1.38778e-17 0 
-2.15343 -0.460069 -0.414213 -1.01897 -1.51663 -1.50163 -4.92534 -2.73234 -2.9883 
-4.03243 -2.40776 -2.7165 -3.75875 -4.18291 0 -1.38778e-17 -5.55112e-17 -0.477744 
-0.551854 1.73472e-18 0 -0.164258 -0.311806 -0.735022 1.38778e-17 0 -2.45488 
-2.63129 -3.45357 -2.60367 -2.8806 -2.37401 -1.83759 -0.846424 -1.46511 -0.331367 
-6.93889e-18 -1.38778e-17 1.38778e-17 -0.174394 -2.46564 -2.0997 -2.17264 0 0 
-4.2683 -3.1212 -3.89711 -4.0228 -3.59194 -2.98106 -3.04698 -3.40753 -2.58075 
-2.68806 -3.51072 -2.35956 -2.18039 0 -0.176017 -0.0242244 -0.0517569 -0.0469431 
-6.93889e-18 0 2.77556e-17 2.77556e-17 0 -2.77556e-17 0 -1.38778e-17 0 
0 0 1.38778e-17 0 1.38778e-17 -2.77556e-17 1.38778e-17 -2.77556e-17 -0.129219 
0 0 -0.0787374 -8.32667e-17 -1.38778e-17 -0.325781 -0.163665 -1.29857 -0.929166 
-1.74751 -1.40604 -1.12578 -0.881707 -1.30702 -1.81188 -2.06676 5.55112e-17 0 
0 -0.272049 1.38778e-17 0 0 2.77556e-17 0 0 -1.69746 
-1.41317 -1.93461 -1.84654 -0.536754 -0.0734792 -1.7664 -0.96191 -0.338932 -0.139136 
0 0 0 -5.55112e-17 0 -1.29964 -0.685282 -0.626791 -3.47444 
-2.44959 -2.42498 -2.95808 -3.30932 -2.7733 -1.55215 -1.84559 -2.4586 -1.2894 
-1.38405 -1.74495 -1.60999 0 0 0 -3.46945e-18 0 0 
0 0 0 0 0 0 0 0 0 
1.38778e-17 0 -1.38778e-17 0 -1.38778e-17 -0.371593 -0.480954 -0.871339 -0.847051 
-0.252866 -0.635996 -0.320432 -0.477332 -1.31611 -1.0548 -1.79155 -0.987435 -0.690647 
-0.894849 -0.731391 -0.21001 -0.190301 3.46945e-18 0 0 -2.77556e-17 -1.07746 
-0.390592 -0.0859482 0 -2.77556e-17 0 0 4.16334e-17 4.16334e-17 -2.77556e-17 
-0.269766 -4.16334e-17 2.77556e-17 -1.38778e-17 6.93889e-18 -1.52046 -1.42194 -2.43313 -2.01194 
-1.3563 -0.931 -1.06229 -1.06291 -0.310458 -0.919908 -0.841032 -0.742418 -0.539887 
-1.38778e-17 -0.155152 -6.93889e-18 1.38778e-17 0 -1.38778e-17 -0.17555 -1.38778e-17 -1.38778e-17 
-0.0655536 0 -6.93889e-18 0 2.77556e-17 2.77556e-17 -0.271122 -0.287463 -0.0826211 
-0.165968 -0.71084 -1.09583 -0.384421 -0.577381 2.77556e-17 -0.219764 0 4.16334e-17 
-0.00311766 -1.38778e-17 -0.312766 -2.77556e-17 0 0 2.77556e-17 -2.77556e-17 0 
0 -6.93889e-18 1.38778e-17 -1.38778e-17 -1.38778e-17 0 -0.463008 -0.930006 -0.207248 
-2.77556e-17 0 -0.391034 5.55112e-17 0 -0.460019 0 -0.134916 -2.77556e-17 
3.46945e-17 1.38778e-17 -0.225756 -2.77556e-17 -1.38778e-17 0 -1.38778e-17 -1.38778e-17 0 
0 -1.38778e-17 0 0 -6.93889e-18 -2.77556e-17 0 0 0 
1.38778e-17 0 1.38778e-17 0 0 -0.431623 0 0 -0.149668 
1.38778e-17 0 -2.77556e-17 -0.180031 1.38778e-17 1.38778e-17 2.77556e-17 0 0 
4.33681e-19 2.77556e-17 -0.253521 -1.38778e-17 5.55112e-17 0 1.38778e-17 0 0 
-6.93889e-18 0 1.38778e-17 1.38778e-17 -1.38778e-17 -1.38778e-17 2.77556e-17 2.77556e-17 2.77556e-17 
0 0 0 2.77556e-17 
