# vtk DataFile Version 4.2
3D Slicer output. SPACE=LPS
ASCII
DATASET POLYDATA
POINTS 1706 float
24.2887 -58.0682 40.518 24.2558 -57.9712 40.6375 24.06 -58.0787 40.7144 
24.1623 -58.2024 40.5855 24.1299 -57.8951 40.7746 24.034 -58.2477 40.5469 
23.76 -58.1593 40.6496 23.66 -57.9288 40.8608 23.66 -57.5667 41.0624 
23.7701 -57.5677 41.0287 24.1903 -58.468 40.17 24.06 -58.7435 39.6237 
22.96 -57.7856 40.8237 23.3574 -58.2523 40.2283 23.46 -57.433 41.1866 
23.7488 -57.5108 41.0805 23.7386 -57.4921 41.0969 24.3875 -58.6019 39.9277 
22.3056 -57.9573 39.5737 24.46 -58.7618 39.6237 24.2587 -58.8918 39.1737 
22.8814 -58.2942 39.1353 23.9647 -58.915 38.5298 22.76 -57.9661 40.4237 
21.8277 -57.2838 41.232 22.26 -57.0565 41.5885 21.9426 -57.7679 39.9463 
23.573 -57.3644 41.2109 23.26 -56.7422 41.8843 24.5359 -58.6191 39.7791 
22.1254 -57.9599 39.0237 24.6474 -58.7212 39.546 24.66 -58.7975 39.4237 
24.5412 -58.9015 39.0476 24.2549 -59.0447 38.2824 24.4056 -59.0119 38.7333 
24.4849 -58.9621 38.9681 22.3197 -58.0482 38.5737 22.7964 -58.3279 38.0487 
24.1471 -59.0611 37.8186 24.0697 -59.0778 37.3079 23.86 -58.9681 37.5237 
21.7257 -57.513 40.6266 20.3068 -56.8503 41.2535 21.36 -56.9947 41.5737 
23.06 -56.2331 42.536 21.86 -56.8675 42.0083 20.1588 -57.2445 39.2612 
20.8724 -57.4804 39.0969 23.2826 -56.7445 41.8745 23.2787 -56.7353 41.8856 
23.2746 -56.7072 41.9133 21.3155 -57.6815 38.2237 24.6787 -58.7478 39.4528 
24.6884 -58.7768 39.406 24.6831 -58.8107 39.364 21.86 -57.8274 37.2237 
23.0337 -58.4965 37.5237 23.9676 -58.9845 36.9473 23.4663 -58.6703 36.8568 
19.2497 -56.8463 40.2303 18.569 -56.5178 40.8403 18.4663 -56.108 41.875 
19.8409 -56.4992 41.8652 21.5475 -56.6849 42.2369 20.6895 -56.5104 42.3206 
23.2033 -56.1876 42.5046 23.3095 -55.8956 42.934 22.56 -56.0473 43.2043 
22.31 -56.2488 42.739 18.7141 -56.8877 39.3664 20.5044 -57.395 37.9753 
18.5743 -56.9251 38.1237 22.6614 -58.2198 36.8987 21.9795 -57.7807 36.2237 
20.4399 -57.2491 36.672 21.3748 -57.4307 35.9522 23.9404 -58.9715 36.6786 
23.9209 -58.8703 36.1973 23.9086 -58.8557 36.1074 17.3464 -56.2927 40.6815 
17.91 -56.5594 40.0737 17.3055 -56.1085 41.1764 17.7785 -55.7059 42.3225 
18.2315 -55.4702 42.9602 19.1985 -55.8337 42.8737 21.36 -56.1822 43.0237 
21.0517 -56.2266 42.9237 23.327 -55.9101 42.8952 23.3545 -55.8723 42.9564 
23.3365 -55.8941 42.9248 23.5134 -55.7034 43.2708 23.3339 -55.2823 44.2297 
22.3253 -55.9275 43.526 17.6893 -56.6975 38.7851 19.5798 -57.0292 36.9217 
17.8985 -56.694 37.4978 17.6607 -56.7025 38.2612 23.9055 -58.8345 36.0121 
22.8482 -58.1417 35.9207 23.1416 -58.0478 35.2237 20.6574 -56.7569 34.7649 
21.3889 -57.2315 35.3726 19.979 -56.867 35.8047 23.0551 -57.6535 34.3099 
16.66 -56.3717 39.9237 16.167 -56.3042 40.0315 15.9646 -55.9232 41.071 
16.6047 -55.7631 41.6709 16.662 -55.2933 42.4806 18.76 -55.3642 43.4158 
18.1874 -55.1746 43.3745 16.5781 -54.8868 43.034 20.6303 -55.9065 43.3675 
21.41 -55.7083 43.8663 23.7742 -55.418 43.6714 23.8844 -55.3049 43.8359 
22.36 -55.3535 44.4237 23.9662 -54.7294 44.832 22.935 -54.8461 44.9928 
21.86 -55.2609 44.6 16.1815 -56.4547 39.0739 17.86 -56.6076 36.9237 
19.41 -56.7665 36.0737 16.7857 -56.5224 37.4493 23.9268 -58.7431 35.7074 
23.6862 -58.3624 35.0378 20.1577 -56.6498 35.0481 20.4587 -56.1996 33.8786 
21.0453 -56.236 33.5181 21.6673 -57.0439 34.4755 22.1452 -56.7601 33.4225 
22.3132 -57.3353 34.4386 23.4111 -57.5686 33.5671 23.7123 -58.1249 34.2729 
14.96 -56.1758 40.1237 15.31 -55.7102 41.3042 15.9004 -55.3394 42.0684 
19.7448 -54.9039 44.4517 18.4977 -54.6715 44.2157 17.2318 -54.4513 43.8271 
16.3721 -54.2932 43.6368 16.1666 -54.6086 43.1344 21.1098 -55.3786 44.2952 
20.46 -54.9238 44.6739 24.0374 -55.1717 43.9807 22.46 -54.8772 45.0237 
23.46 -54.5225 45.2729 24.06 -54.3258 45.2781 24.3806 -54.6726 44.5942 
24.8741 -54.0422 45.1325 23.01 -54.4352 45.4027 22.16 -54.6518 45.1976 
21.535 -54.1194 45.6506 20.9453 -54.8962 44.8446 14.41 -56.2426 39.7847 
14.4725 -56.3457 39.2237 15.46 -56.4371 38.5237 18.46 -56.3762 35.7237 
17.5643 -56.2254 35.7264 16.61 -56.4297 36.9544 15.4475 -56.3843 37.1237 
23.9547 -58.5721 35.0538 23.9796 -58.3192 34.2107 23.9562 -58.47 34.7123 
18.9287 -56.283 35.0388 19.86 -56.0335 33.9117 20.1759 -55.6892 33.2096 
21.066 -55.9787 33.1296 23.1628 -56.9775 32.8262 22.6713 -56.2903 32.3219 
23.7677 -57.6962 33.3875 24.0288 -58.0613 33.6528 14.7725 -55.8499 40.9383 
14.5049 -55.678 41.2237 15.11 -55.0788 42.1082 14.16 -55.0709 41.9382 
19.3487 -54.0172 45.1464 16.9554 -53.6718 44.4957 17.5747 -53.584 44.8312 
18.51 -53.5327 45.2264 15.6224 -53.3703 44.036 15.4928 -54.0863 43.3822 
20.86 -53.7157 45.8492 20.3552 -53.8898 45.5855 24.2069 -55.0191 44.1153 
22.91 -53.8047 45.9466 24.06 -53.992 45.6017 24.6975 -53.7914 45.5365 
24.4327 -54.7912 44.2859 24.6921 -54.4751 44.5276 25.1343 -53.6786 45.4415 
24.9936 -54.0994 44.8376 22.01 -53.739 45.9864 13.2503 -56.2376 40.1299 
13.0803 -56.397 39.5525 13.3709 -56.489 38.8552 14.56 -56.4188 38.2737 
17.6827 -55.8988 34.7462 16.61 -56.1833 35.9737 16.36 -55.8624 35.1025 
17.2071 -55.7018 34.5439 15.01 -56.2628 36.4761 18.86 -55.9535 34.3179 
19.6868 -55.475 33.2394 20.7373 -55.1702 32.2332 21.3569 -55.5485 32.3315 
23.66 -56.8227 32.0778 23.9417 -57.3324 32.4579 22.6123 -55.9712 31.9216 
23.8709 -56.0222 30.9068 24.0237 -57.9114 33.3547 24.0676 -57.8016 33.1198 
24.0545 -57.4245 32.4528 13.2678 -55.9366 40.927 13.46 -55.6892 41.2959 
13.76 -55.2553 41.8078 14.3489 -54.565 42.5135 13.7397 -54.069 42.8272 
13.3526 -54.5798 42.4613 19.5203 -52.776 46.0829 16.6616 -52.7682 45.0377 
16.99 -52.6981 45.2306 18.3652 -52.5527 45.8317 15.1733 -53.1322 44.0088 
15.5291 -52.4712 44.5995 14.7971 -54.0685 43.1862 20.36 -53.0787 46.1502 
20.9536 -52.8172 46.3835 21.4573 -53.4462 46.125 22.86 -53.4782 46.2237 
23.9639 -53.1499 46.2697 24.4442 -53.4474 45.9252 25.4782 -53.0897 45.8432 
25.3764 -53.4982 45.4358 25.2734 -53.6376 45.2522 25.1436 -53.8624 45.0688 
11.1664 -56.2967 41.0759 11.9863 -56.5042 39.9163 11.7819 -56.0173 41.3778 
11.36 -56.8128 38.5237 12.378 -56.6257 38.128 13.06 -56.5314 37.9737 
14.0975 -56.3466 36.8737 17.7344 -55.455 33.9301 15.11 -55.9256 35.4084 
15.31 -55.677 34.7632 15.985 -55.6773 34.7447 16.5094 -55.0612 33.622 
13.7279 -56.2995 36.5097 18.56 -55.6073 33.8567 19.9843 -54.5891 32.0209 
18.9799 -54.4808 32.3181 18.6103 -54.724 32.6974 21.9234 -54.9094 31.3261 
22.1051 -55.5448 31.846 24.0173 -57.0479 31.9186 23.9531 -56.2136 31.0311 
24.0461 -57.3259 32.3012 24.0526 -57.3688 32.3646 22.601 -55.0976 31.056 
23.6729 -55.2564 30.4353 23.9304 -56.0014 30.8251 23.9464 -56.0893 30.901 
23.8458 -55.4715 30.4433 12.6904 -55.5132 41.8188 13.2883 -55.4722 41.6537 
14.3628 -53.6753 43.3644 13.26 -53.5345 43.1574 12.86 -54.1562 42.8438 
12.7822 -54.4964 42.7034 12.3514 -54.8787 42.6731 19.41 -52.0038 46.4021 
16.8089 -52.1281 45.4745 16.3557 -51.5835 45.5285 15.3531 -51.9287 44.8387 
18.4447 -51.3787 46.4785 14.4189 -52.8647 43.8848 14.6721 -52.2353 44.4553 
20.3641 -52.1475 46.6067 21.96 -52.4474 46.8065 21.46 -51.5787 47.1305 
23.26 -52.7132 46.6449 25.0538 -52.8787 46.2216 24.7533 -52.2991 46.6373 
25.5693 -53.0116 45.8367 25.5747 -52.8213 45.9952 25.5515 -53.0938 45.7693 
10.6544 -56.7095 40.2633 10.1386 -56.5726 41.1122 11.36 -55.9242 41.7151 
10.81 -56.7683 39.8487 10.457 -57.0307 38.6539 11.1925 -56.8566 38.0251 
11.5239 -56.6868 37.0931 12.5044 -56.4367 36.5195 17.36 -55.1419 33.5786 
13.535 -55.9325 35.2608 13.8521 -56.0944 35.7333 14.585 -55.4575 34.326 
15.585 -55.1312 33.7803 16.86 -54.5497 32.954 11.9225 -56.3125 35.8013 
17.885 -54.9134 33.148 19.4198 -54.2664 31.9838 20.6578 -53.9706 31.2058 
19.5392 -53.2708 31.2305 17.51 -54.4099 32.6807 18.0815 -53.7369 31.918 
18.8371 -53.8667 31.8276 21.7471 -54.4392 31.0396 22.5447 -54.466 30.6337 
23.7827 -55.1586 30.2226 23.7574 -55.0831 30.1632 11.354 -54.9756 42.923 
11.0314 -55.6898 42.1969 13.81 -52.7433 43.7652 13.56 -53.0787 43.5267 
13.01 -53.1579 43.4517 12.3297 -53.3512 43.5074 12.2545 -53.9787 43.1737 
11.7381 -54.4977 43.2282 19.56 -51.4787 46.7279 17.3403 -51.2787 46.083 
16.16 -50.7787 45.7334 15.56 -51.5686 45.1168 14.0553 -51.8215 44.4789 
14.5669 -51.4463 44.8565 18.7298 -50.5674 46.8098 17.5941 -50.8959 46.2846 
19.4997 -50.5367 47.0267 13.6401 -52.0391 44.1697 22.56 -51.966 47.055 
21.8548 -50.9492 47.4057 20.5203 -50.72 47.2183 20.86 -50.6787 47.3386 
23.7892 -51.6787 47.0977 25.5623 -52.3624 46.3468 25.5692 -51.9871 46.5411 
25.5709 -51.785 46.6511 24.46 -51.6516 47.013 10.0451 -56.7566 40.7104 
8.90795 -57.2295 40.3204 8.99776 -57.4116 39.2237 9.00342 -56.8358 41.2779 
8.53672 -56.4801 42.3452 9.83504 -56.2883 41.8252 9.72288 -57.2334 37.6237 
10.5482 -56.8913 36.7237 11.1565 -56.5103 35.89 10.5205 -56.7746 36.1962 
11.9861 -56.0633 35.0942 13.86 -55.5064 34.3715 13.36 -55.7763 34.8237 
14.2635 -55.1879 33.887 14.96 -54.6986 33.2065 15.5788 -54.4553 32.9417 
15.4319 -53.9603 32.4401 16.96 -54.1582 32.545 10.7899 -56.3529 35.1535 
20.7093 -52.9457 30.5866 21.7592 -53.6787 30.4821 20.4741 -52.3664 30.4051 
19.2517 -52.5941 30.8501 19.5549 -52.6584 30.8339 18.96 -52.853 31.105 
17.1159 -53.883 32.2284 17.8589 -53.2154 31.575 22.4321 -53.5625 30.0447 
23.7447 -55.0265 30.1306 11.3483 -54.4718 43.4578 10.66 -54.6402 43.5872 
10.4014 -55.7848 42.2939 13.1254 -52.032 44.0479 12.1651 -52.332 44.0541 
12.61 -52.0287 44.0587 12.178 -52.9873 43.7574 11.872 -53.6939 43.6407 
17.1147 -50.3786 46.2377 16.7953 -49.972 46.2045 15.26 -49.9787 45.5047 
15.4028 -50.9022 45.3199 13.8431 -51.3463 44.617 14.3673 -50.4537 45.1078 
18.7765 -49.8787 46.9778 17.66 -49.5537 46.557 20.2446 -49.608 47.416 
20.46 -50.0787 47.3064 13.06 -51.4175 44.294 22.46 -50.9674 47.4255 
21.581 -50.0876 47.6239 20.9446 -49.6787 47.617 23.3761 -50.8624 47.4212 
24.16 -50.6787 47.3885 24.71 -50.6827 47.2696 25.5745 -51.6686 46.7034 
25.6943 -51.1826 46.8385 7.56004 -57.5073 41.0767 7.7877 -57.6592 40.2239 
7.17475 -58.0406 39.4237 7.72536 -57.8792 38.6362 9.00422 -57.4827 38.2487 
[...]
POINT_DATA 1706
SCALARS scalars float
LOOKUP_TABLE default
-2.77556e-17 2.77556e-17 -0.290527 -2.77556e-17 0 2.77556e-17 -0.336759 -0.287272 -0.116539 
1.38778e-17 0 -0.519069 -0.755933 -0.725046 -0.134236 0 0 1.38778e-17 
-1.87539 -0.157931 -0.327877 -1.65931 -0.415822 -1.09591 -1.61622 -1.09087 -1.99131 
1.38778e-17 -0.0198785 -1.38778e-17 -2.34354 6.93889e-18 -0.0481783 0 -2.77556e-17 2.77556e-17 
0 -2.13746 -1.53485 0 0 -0.347506 -1.90714 -3.03865 -1.96021 
-0.153267 -1.40485 -3.88493 -3.33654 3.46945e-18 0 0 -3.15681 0 
0 0 -2.44862 -1.18027 0 -0.61035 -4.34212 -4.82234 -4.76491 
-3.3891 -1.68031 -2.51825 1.38778e-17 -0.0297439 -0.813887 -0.924962 -5.15851 -3.97016 
-5.83962 -1.51798 -2.22507 -3.88865 -2.8832 5.55112e-17 0 -5.55112e-17 -6.05488 
-5.66635 -6.0065 -5.45396 -5.04514 -4.04081 -1.90807 -2.1931 0 0 
-3.46945e-18 5.55112e-17 -0.718992 -1.15083 -6.34034 -4.79174 -6.54693 -6.59332 -8.32667e-17 
-1.2576 -0.972954 -3.67377 -2.89129 -4.35608 -1.12984 -6.91039 -7.35717 -7.3551 
-6.65687 -6.60946 -4.58655 -5.17078 -6.7692 -2.69548 -2.1184 0 0 
-1.58454 -0.722147 -1.54998 -2.09978 -7.63196 -6.53534 -4.9441 -7.63962 -1.38778e-17 
-0.339853 -4.19949 -3.96697 -3.36536 -2.62142 -2.15924 -1.92339 -0.747835 -0.352566 
-8.50835 -7.98533 -7.36992 -3.97099 -5.1209 -6.30372 -7.14436 -7.23139 -2.59074 
-3.39945 -2.77556e-17 -1.92016 -1.40435 -0.994461 -0.271246 -0.292944 -1.83261 -2.29751 
-3.18047 -3.0538 -9.11956 -9.20619 -8.50354 -5.92448 -6.80752 -7.77095 -8.90942 
0 0 0 -5.45728 -4.57419 -4.2733 -3.35455 -1.04746 -1.58164 
-0.383144 -2.77556e-17 -8.55541 -8.79417 -8.18522 -9.13474 -4.79818 -6.89417 -6.42868 
-5.7215 -8.15795 -8.01835 -3.94645 -4.16535 1.38778e-17 -2.38729 -1.22956 -0.663958 
-1.38778e-17 2.77556e-17 -0.236708 -2.77556e-17 -3.12463 -10.1751 -10.4609 -10.3171 -9.43216 
-6.71479 -7.74027 -7.82635 -7.20564 -8.95894 -5.56631 -4.79318 -3.57611 -2.96979 
-0.450425 -0.14181 -1.58861 -0.0894858 -2.77556e-17 -5.55112e-17 -1.38778e-17 -10.039 -9.82019 
-9.51782 -9.00775 -9.70329 -9.98779 -5.49158 -7.58984 -7.37262 -6.43382 -8.65134 
-8.63699 -8.68567 -4.7302 -4.49389 -3.7249 -2.63257 -1.59678 -1.04917 -0.108247 
0 2.77556e-17 0 -10.0656 -9.82133 -10.7415 -8.44122 -9.0835 -9.60552 
-9.30003 -6.73405 -8.04695 -7.48334 -7.47259 -6.39372 -9.04239 -5.90877 -4.26408 
-5.30709 -5.76295 -2.19099 -2.1204 0 0 1.38778e-17 0 -1.44303 
-0.197365 -1.38778e-17 0 2.77556e-17 -10.5571 -9.97557 -9.2105 -9.25818 -9.78657 
-10.1073 -10.4339 -6.06892 -7.82795 -8.47224 -8.68391 -7.1353 -8.98343 -8.60479 
-5.18681 -3.62589 -4.1648 -2.33701 -0.545156 -0.872719 1.38778e-17 0 0 
-9.0742 -9.39541 -10.7257 -8.88171 -7.79511 -8.01283 -7.82854 -8.49378 -6.46877 
-8.01098 -8.40366 -7.08559 -6.52328 -5.65512 -7.71342 -6.09819 -4.79027 -3.3618 
-4.01653 -5.43705 -4.56402 -4.69438 -2.28157 -1.39136 1.38778e-17 -2.77556e-17 -10.4491 
-10.9318 -8.6855 -8.91475 -8.88041 -8.97056 -9.55034 -10.0126 -6.02239 -7.95461 
-8.40772 -8.54805 -8.04453 -7.98042 -6.939 -8.01367 -6.1889 -8.05915 -3.06595 
-3.85924 -5.17154 -4.85467 -1.87699 2.77556e-17 -2.77556e-17 0 -1.21383 -9.00158 
-7.94709 -7.13044 -8.83296 -9.55836 -9.82856 -6.56227 -6.78159 -7.00894 -6.52419 
-7.59825 -7.17053 -7.64859 -6.64782 -5.89584 -5.55878 -4.91996 -5.14067 -6.43925 
-3.06464 -2.06938 -3.12465 -3.26161 -3.34612 -3.54183 -4.77694 -3.96218 -1.27599 
-6.93889e-17 -9.9744 -10.1263 -10.6201 -7.91351 -8.02721 -7.81487 -8.62153 -9.26395 
-8.57007 -8.32688 -7.2816 -8.00216 -7.59131 -7.14515 -7.00281 -8.16008 -5.6431 
-5.33237 -7.37757 -3.27017 -4.27856 -4.972 -2.39245 -1.65524 -1.10059 8.32667e-17 
0 -7.7751 -7.18837 -6.13764 -5.84202 -6.41929 -8.60969 -10.864 -10.8868 
-10.6085 -9.84101 -8.99827 -5.8643 -4.52223 -5.15488 -5.16403 -5.1421 -7.47529 
-6.94477 -6.06055 -6.68667 -5.72354 -5.56522 -4.3385 -4.42188 -5.35085 -2.38743 
-2.81749 -2.60047 -1.83431 -2.13767 -2.68813 -2.85301 -3.24486 -3.23315 -0.955793 
-0.489721 0 -1.60579 -9.4042 -10.404 -8.10097 -7.22952 -6.79323 -8.93325 
-8.4607 -7.58369 -6.95334 -6.45519 -6.82498 -6.30665 -7.59903 -6.41747 -7.95416 
-5.2277 -4.12048 -3.22383 -4.6147 -2.26729 -1.60788 1.11022e-16 -5.55112e-17 -0.52038 
-7.33921 -6.17444 -5.83904 -5.39413 -4.63862 -8.62685 -7.42729 -10.373 -10.3401 
-10.707 -9.59562 -3.48291 -4.31392 -4.07818 -4.48018 -6.59208 -6.64442 -5.74479 
-5.60328 -4.64965 -4.40767 -3.53735 -4.0187 -3.43487 -1.71102 -1.33821 -1.90598 
-1.90992 -1.3833 -1.69632 -2.21653 -1.3158 -1.11758 -1.75927 -2.28085 -3.25584 
-0.169314 -0.190019 0 -6.93889e-18 -6.93889e-18 -9.99763 -9.43444 -8.80518 -7.91667 
-7.39528 -6.85335 -6.08824 -5.99111 -7.33783 -6.34253 -5.86275 -5.29858 -6.27883 
-5.15964 -7.72079 -6.58844 -7.19795 -6.10372 -7.86455 -7.02078 -4.71995 -3.53636 
-3.5624 -5.02198 -1.86526 -3.27236 -2.63172 -2.77556e-17 0 -0.856575 -6.17677 
-5.91948 -6.83224 -5.05036 -4.40197 -3.97623 -3.77497 -9.6118 -8.66357 -8.2404 
-7.14952 -9.9648 -9.8966 -10.01 -9.96379 -10.6413 -10.509 -9.77403 -2.83909 
-2.99677 -3.35473 -3.31683 -3.64574 -5.87075 -5.23416 -3.99083 -5.35913 -4.05268 
-3.91714 -2.9232 -3.21444 -2.49119 -2.83143 -0.752041 -0.975164 -1.39389 -0.387097 
-0.601623 -1.33687 -1.63202 -0.673561 -1.06616 -1.04506 -0.390939 -1.43368 -1.56064 
-1.1785 0 0 -0.0605015 6.93889e-18 -8.9999 -7.96438 -7.43626 -6.34683 
-5.94423 -5.35048 -6.0795 -5.39767 -4.84427 -4.76772 -4.63806 -4.98362 -4.60514 
-7.71941 -6.77339 -7.60929 -5.73768 -6.49765 -6.43276 -5.05028 -3.74191 -3.16878 
-1.79492 -2.32929 -8.32667e-17 -0.716658 -5.62564 -5.2939 -5.74431 -4.50744 -3.92683 
-4.00841 -3.12994 -8.97816 -9.8517 -7.6849 -7.57765 -6.68561 -8.80836 -9.6224 
-10.1194 -9.99392 -9.26772 -9.47793 -2.45123 -1.80359 -1.77313 -2.17134 -2.9381 
-5.27459 -5.51549 -4.79359 -2.36692 -3.12235 -4.53671 -4.56592 -3.44981 -3.17795 
-2.65726 -2.31299 -2.40561 -1.4455 -0.317368 -0.682341 -0.957041 -0.302627 0 
0 -0.196186 -0.93922 -0.650727 -0.945786 -0.913209 -0.627014 -0.389106 1.38778e-17 
-1.38778e-17 -0.750446 -0.669626 -0.976749 0 6.93889e-18 0 0 -0.19359 
-7.14749 -8.03374 -8.47586 -6.59825 -6.69935 -5.30731 -5.92508 -5.0863 -4.26172 
-4.60079 -5.10841 -4.26984 -4.60717 -3.76857 -3.71114 -4.12013 -4.25279 -3.65498 
-7.78386 -6.95208 -6.17829 -7.15095 -6.03399 -5.46422 -5.18551 -4.8516 -3.69986 
-2.5608 -1.53478 -2.77556e-17 2.77556e-17 -0.469938 -4.51497 -5.31601 -5.02295 -5.02744 
-6.21477 -3.59507 -2.77074 -2.7736 -2.87895 -2.53893 -7.4967 -8.57242 -8.97602 
-6.96341 -6.72886 -9.23543 -8.85855 -9.40168 -8.28882 -8.31288 -1.9157 -1.42874 
-1.28296 -1.80882 -0.872792 -0.411009 -1.8337 -4.55134 -4.73119 -1.81437 -2.57155 
-2.98489 -3.911 -4.18307 -3.08838 -2.13426 -1.6399 -2.50836 -1.48765 -1.91159 
-2.77556e-17 -0.187321 -1.38778e-17 5.55112e-17 -0.425985 -1.38778e-17 0 0 0 
-0.466237 -0.327198 -0.349069 0 0 2.77556e-17 0 -0.151628 -0.90777 
0 -2.77556e-17 -6.89067 -6.31456 -7.13481 -6.06855 -5.0948 -5.6256 -4.09676 
-3.14354 -4.6374 -3.99087 -3.24326 -3.27941 -2.85817 -3.46033 -3.09046 -3.02789 
-2.57254 -7.42 -6.8396 -5.51324 -6.44643 -5.559 -4.34183 -4.25085 -2.82922 
-3.21709 -1.67962 -0.613526 -0.842853 1.04083e-17 -0.0442123 -3.97459 -3.60133 -4.34349 
-3.67744 -5.28653 -4.83016 -4.47714 -5.98289 -3.08073 -1.99681 -2.19393 -2.50949 
-1.9101 -6.33036 -6.40522 -7.03582 -7.49753 -8.39356 -7.39939 -7.73842 -8.30556 
-8.41132 -8.70091 -8.23361 -7.51019 -7.14779 -7.63472 -1.33445 -0.929863 -0.885717 
-0.854634 -0.929311 -1.46318 -0.858176 -0.456083 -0.186621 -0.0560143 1.38778e-17 1.38778e-17 
-0.177921 -0.502117 -4.44095 -3.34975 -2.36018 -1.53897 -0.738211 -2.90596 -4.16422 
-3.09724 -0.845642 -0.916938 -1.04053 -2.05984 -1.8484 -3.07938 -0.603525 1.38778e-17 
0 0 0 -0.427155 -2.77556e-17 2.77556e-17 2.77556e-17 -1.38778e-17 0 
-2.08167e-17 -3.46945e-18 0 0 4.33681e-19 -0.0039081 -0.512455 -5.35613 -6.41657 
-4.8082 -5.36082 -6.61914 -6.51217 -4.25223 -4.45772 -2.17637 -2.31928 -2.79985 
-5.28074 -2.94011 -2.69536 -4.84767 -3.09301 -2.58212 -2.66147 -2.23664 -2.33509 
-1.95037 -2.55667 -1.91219 -1.57197 -7.43638 -6.73703 -6.07084 -4.96402 -4.13593 
-5.42741 -2.10041 -3.00161 -3.32287 -1.16784 -1.38778e-17 -0.535524 0 -0.350317 
0 0 0 0 -2.96943 -2.55007 -2.52331 -3.40924 -5.28505 
-4.19991 -2.56004 -1.15127 -1.45319 -0.634972 -1.86991 -0.783943 -5.75555 -5.69548 
-6.23288 -6.84186 -7.45931 -7.72566 -6.51709 -6.56437 -6.80397 -6.65793 -6.33856 
-6.11359 -6.97612 -6.00076 -0.208478 -0.539576 -0.127394 -0.850597 -0.317703 -0.709706 
-0.22446 -0.153356 -0.130039 0 0 0 0 0 -2.77556e-17 
-0.38113 -3.56649 -1.88931 -0.499399 -1.02852 -0.246016 -2.49678 -2.05066 -2.99875 
-0.445184 -0.457534 -0.476535 -0.830018 -1.326 -2.49913 1.9082e-17 2.42861e-17 -2.77556e-17 
2.77556e-17 -6.93889e-18 0 0 0 0 -0.0228392 -5.20417e-18 -4.54265 
-4.75404 -5.42946 -4.3738 -5.3549 -5.57806 -3.90018 -3.23807 -1.39267 -1.02616 
-2.25441 -6.57638 -5.06647 -4.40977 -3.6862 -2.518 -2.41184 -3.08549 -2.00445 
-1.46907 -1.31323 -1.41475 -0.619964 -0.935741 -0.723863 -6.72088 -6.26407 -3.98011 
-5.58475 -1.98909 -1.24489 -1.27086 -3.28555 -0.713192 1.38778e-17 -0.164261 0 
0 -2.51398 -1.61477 -1.92316 -1.70945 -2.36928 -3.33226 -2.76739 -4.6616 
-3.90573 -0.452282 -0.731928 -0.352112 -5.28767 -5.76305 -6.42274 -7.26629 -6.53924 
-5.59317 -5.86621 -5.82193 -6.18166 -5.00004 -5.57322 -5.71206 -4.81166 -5.54259 
-5.83686 -5.62424 -2.77556e-17 2.77556e-17 -2.77556e-17 0 -0.642676 -0.50775 0 
1.38778e-17 1.38778e-17 -0.460815 0 2.77556e-17 1.38778e-17 0 0 0 
-2.50487 -2.56713 -0.438993 -0.250951 -1.72587 -0.561022 -0.371218 -1.38778e-17 0 
-1.91226 -2.27826 -2.18106 -2.77556e-17 -1.38778e-17 1.38778e-17 2.77556e-17 -1.38778e-17 -2.77556e-17 
-1.38778e-17 0 -0.107958 -0.653569 -2.02151 -2.19152 -3.46945e-18 8.67362e-19 -3.47417 
-4.34597 -3.53207 -4.24674 -5.28005 -2.7024 -0.485454 -0.537111 -1.08466 -1.43555 
-6.59078 -6.27434 -5.06947 -4.50626 -3.57702 -1.51212 -1.87078 -2.07658 -2.25642 
-1.11812 -0.827511 -0.876038 -0.502754 -0.294076 -2.77556e-17 -2.77556e-17 -4.16334e-17 -0.338912 
0 -0.343504 -6.55589 -2.93614 -4.11879 -5.78349 -0.877218 -1.92342 -0.558543 
-0.242272 0 -1.38778e-17 0 0 -0.364064 -0.254729 -0.932424 -1.30715 
-0.524312 -1.43203 -1.66753 -3.84181 -2.73283 -1.96409 -0.821319 -3.9651 -4.88934 
-0.144848 -0.151127 2.77556e-17 0 -5.93509 -5.01577 -4.27683 -5.09947 -5.1219 
-4.73454 -4.75639 -4.80464 -5.00217 -4.69195 -4.49578 -4.72661 -4.07109 -4.44155 
-4.4937 -4.99846 -5.55112e-17 5.55112e-17 2.77556e-17 5.55112e-17 -1.71047 -1.28591 -1.96414 
-1.93672 0 2.77556e-17 0 -1.31289 -0.886717 -0.256613 2.77556e-17 -1.30934 
-1.24435 -1.39914 -1.13859 0 1.38778e-17 0 2.77556e-17 0 -0.785049 
-3.50427 -2.92929 -2.89268 -4.12403 -4.6232 -1.14969 -2.43482 -0.217868 -0.0673631 
-0.37125 -0.873239 -6.02308 -6.79864 -4.98813 -4.82848 -4.31905 -3.25437 -1.02852 
-1.79985 -2.844 -0.311417 -0.166268 2.77556e-17 0 0 -2.77556e-17 0 
1.38778e-17 -1.38778e-17 -2.77556e-17 -5.55112e-17 0 -2.8844 -4.63986 -3.93204 -6.03905 
-5.80116 -5.39194 -1.65937 -0.591645 0 -1.38778e-17 -0.295115 -2.77556e-17 0 
0 1.38778e-17 -6.93889e-18 -4.16334e-17 -2.08167e-17 -0.505106 -0.136587 0 -0.565368 
-0.176709 -2.91895 -2.42369 -1.61177 -1.23173 -0.119869 0 4.16334e-17 -4.00791 
0 1.38778e-17 0 0 0 0 -4.56697 -4.42428 -4.80769 
-4.2609 -4.11616 -4.1221 -3.47179 -4.27598 -4.382 -3.98883 -3.84142 -3.75142 
-3.64493 -3.35843 -4.08371 -3.89027 -3.76792 -0.303741 -0.574362 -1.02125 -1.21316 
-1.21927 -0.888458 -0.722133 -0.374156 -0.308634 0 0 0 2.77556e-17 
-1.03206 -0.830634 -0.496272 0 -3.38499 -2.54621 -2.13179 -3.68599 -3.38139 
-1.01723 -1.05308 1.38778e-17 -1.38778e-17 0 0 6.93889e-18 2.77556e-17 -0.74549 
1.38778e-17 -5.4173 -4.24795 -3.37744 -0.639384 -0.670351 -1.37902 -2.51861 0 
1.38778e-17 0 0 -2.87719 -3.35741 -2.5441 -4.27432 -4.75212 -5.69738 
-5.40705 -1.20378 -0.801012 -1.70009 0 -0.59115 0 0 -0.160214 
2.77556e-17 1.38778e-17 -1.38778e-17 0 0 0 -2.98078 -0.874052 -1.72686 
-0.18502 0 0 0 -3.14036 -3.47135 -3.59612 -3.19168 -3.33048 
-2.63975 -2.51547 -3.13584 -2.96836 -3.06836 -2.84968 -1.95824 -2.4977 -3.50399 
-2.79878 -2.77097 -3.0491 -1.38778e-17 -1.38778e-17 -1.38778e-17 0 -0.576029 -0.495064 
-0.665761 -0.582416 4.85723e-17 -0.611652 -1.38778e-17 -0.0542736 -6.93889e-18 1.38778e-17 1.38778e-17 
-0.111124 0 -0.412121 -1.38778e-17 -0.0727209 0 -0.0442777 -2.48207 -2.93595 
-1.93331 -1.92115 -1.23188 -1.01733 -2.32222 -2.3016 -0.639037 1.38778e-17 1.38778e-17 
-5.05362 -4.40804 -3.76521 -2.72427 2.77556e-17 5.55112e-17 -1.71015 0 -0.237107 
1.38778e-17 -1.9742 -1.60964 -3.44368 -2.3888 -2.87571 -4.35141 -4.77433 -4.40567 
-0.270507 0 2.77556e-17 -0.162051 -1.40113 0 0 -2.1445 -1.0291 
-0.330533 -0.644764 0 1.38778e-17 0 -2.25949 -2.25903 -2.02101 -2.56642 
-0.982665 -0.702543 -1.71596 -0.939119 -1.40412 -2.08273 -1.05984 -1.47352 -1.9998 
-2.34624 -1.46659 -1.20085 -1.51946 -2.10216 -2.10658 -2.77556e-17 -1.73472e-17 5.55112e-17 
1.38778e-17 -0.371374 -0.0421609 2.08167e-17 -2.77556e-17 0 6.93889e-18 6.93889e-18 1.38778e-17 
1.38778e-17 2.77556e-17 1.38778e-17 -2.77556e-17 6.93889e-18 0 6.93889e-18 0 -1.26787 
-1.59919 -0.796604 -0.265902 -0.365194 -1.44004 2.77556e-17 -4.26765 -3.43867 -3.06702 
-2.31907 -0.276123 -2.77556e-17 0 -0.0817458 -1.72382 -0.854809 -0.971717 -0.317349 
-3.47306 -4.06591 -1.79227 -2.268 -3.64772 -3.92617 -4.07259 0 2.77556e-17 
1.38778e-17 0 -0.806053 -1.33665 -1.44967 -0.841035 -0.117778 -0.32704 0 
-0.0683367 -1.38778e-17 1.38778e-17 -1.35262 -1.42235 -1.4961 -1.36127 -0.513964 -0.385356 
-0.274354 -0.5433 -0.500701 -0.71101 -1.1253 -0.318939 -0.168452 -0.529663 -0.364687 
-0.815081 -0.400377 -1.21063 -0.356062 -0.1415 -0.444233 -0.261578 1.38778e-17 0 
6.93889e-18 -1.0099 -0.916275 -1.03647 -0.305967 -0.716407 -0.255895 0 2.77556e-17 
-2.77556e-17 0 -2.77556e-17 -3.67469 -2.93727 -2.62103 -1.30869 1.38778e-17 0 
1.38778e-17 0 1.38778e-17 6.93889e-18 -0.156242 -0.602609 1.38778e-17 0 -2.98923 
-3.03966 -1.66761 -2.92892 -2.84703 -2.77556e-17 0 -0.408698 -0.646593 -0.211781 
0 0 6.93889e-18 2.08167e-17 -6.93889e-18 0 -0.159781 -0.797111 -0.37116 
-0.991754 0 0 -0.139305 0 0 0 0 0 
-2.77556e-17 -1.38778e-17 -0.228326 1.38778e-17 -0.658555 -0.345472 2.77556e-17 -2.77556e-17 1.38778e-17 
0 -6.93889e-18 -2.77556e-17 -0.0215046 0 -2.77556e-17 0 -0.359288 -2.77556e-17 
2.77556e-17 -1.38778e-17 2.77556e-17 -0.0780165 2.77556e-17 0 -1.38778e-17 -0.0835693 -0.118232 
0 5.55112e-17 -0.128285 -0.331246 0 -2.77556e-17 0 0 0 
0 2.77556e-17 0 0 -2.01321 -1.30566 -0.950741 -6.93889e-18 -2.77556e-17 
-0.297525 -1.38778e-17 1.38778e-17 -1.38778e-17 -2.01658 -2.47589 -1.95835 2.77556e-17 0 
5.55112e-17 -0.0539233 -0.990587 -0.745544 0 1.38778e-17 6.93889e-18 6.93889e-18 -4.16334e-17 
1.38778e-17 -0.20755 -0.182533 0 0 1.38778e-17 0 0 0 
2.77556e-17 0 -3.46945e-18 0 0 -1.38778e-17 0 0 0 
0 -1.38778e-17 0 1.38778e-17 0 0 2.77556e-17 2.77556e-17 2.77556e-17 
-1.55332 -0.0293777 -4.16334e-17 0 2.77556e-17 -1.34447 -1.42884 0 0 
0 -0.283763 6.93889e-18 6.93889e-18 -0.452018 -0.834918 1.38778e-17 0 -1.38778e-17 
0 -0.466224 -1.38778e-17 0 3.46945e-18 -0.494042 -0.668933 -0.0984055 0 
-0.0925593 -0.140319 2.77556e-17 5.55112e-17 0 -5.55112e-17 0 0 0 
0 -1.38778e-17 6.93889e-18 -1.38778e-17 6.93889e-18 
