# vtk DataFile Version 4.2
3D Slicer output. SPACE=LPS
ASCII
DATASET POLYDATA
POINTS 7508 float
-143.972 3.01328 6.39852 -144.31 2.87582 6.35693 -144.31 3.14937 6.61349 
-143.81 3.10316 6.43753 -144.443 2.7299 6.29553 -144.576 2.64937 6.29553 
-143.81 3.14937 6.47984 -144.31 3.35835 6.79553 -144.7 3.14937 6.79553 
-143.74 3.14163 6.45401 -144.5 2.64937 6.25503 -144.627 2.54163 6.2404 
-144.81 2.46406 6.29553 -144.81 2.64937 6.44216 -143.81 3.53247 6.79553 
-143.395 3.34742 6.52362 -143.496 3.64937 6.79553 -144.81 3.64937 7.17721 
-144.31 3.64937 7.0092 -144.81 3.07905 6.79553 -144.81 2.40048 6.24384 
-145.201 2.14937 6.29553 -145.31 2.64937 6.74302 -143.81 3.64937 6.87861 
-143.31 3.39408 6.54222 -143.31 3.64937 6.75217 -143.81 4.14937 7.18199 
-143.31 4.14937 7.09294 -145.095 3.64937 7.29553 -145.31 3.14937 7.08491 
-144.81 3.84375 7.29553 -144.31 4.10265 7.29553 -144.222 4.14937 7.29553 
-145.112 2.14937 6.23731 -145.31 2.03985 6.29553 -145.31 2.14937 6.36111 
-145.399 2.64937 6.79553 -143.237 3.43629 6.55758 -142.865 3.64937 6.66628 
-142.81 3.67589 6.67845 -142.81 3.8116 6.79553 -143.81 4.35706 7.29553 
-142.81 4.14937 7.07048 -143.31 4.49468 7.29553 -145.31 3.49481 7.29553 
-145.31 3.64937 7.39102 -145.31 4.14937 7.65704 -144.81 4.14937 7.46165 
-145.775 3.14937 7.29553 -145.81 2.64937 7.02036 -144.31 4.64937 7.5388 
-145.2 2.064 6.23913 -145.31 1.95897 6.24229 -145.481 1.81207 6.29553 
-145.81 2.14937 6.72512 -145.81 2.26267 6.79553 -142.411 3.8233 6.79553 
-142.348 3.85066 6.81631 -143.81 4.64937 7.44254 -142.31 3.86565 6.8288 
-142.31 4.14937 7.06838 -142.81 4.52563 7.29553 -142.31 4.49243 7.29553 
-143.31 4.64937 7.38343 -145.81 3.64937 7.61102 -145.661 4.14937 7.79553 
-145.31 4.45919 7.79553 -145.103 4.64937 7.79553 -144.81 4.64937 7.69255 
-145.81 3.12038 7.29553 -146.31 2.14937 7.03682 -146.31 2.66489 7.29553 
-144.478 5.14937 7.79553 -144.31 5.14937 7.7604 -144.81 4.91557 7.79553 
-143.81 5.14937 7.69346 -145.623 1.69779 6.33713 -145.908 2.14937 6.79553 
-145.81 1.64937 6.45912 -143.31 5.14937 7.62779 -142.173 3.91451 6.87949 
-141.81 4.14937 7.10292 -141.81 4.42962 7.29553 -142.81 4.64937 7.35831 
-142.31 4.64937 7.38294 -141.81 4.64937 7.43416 -142.81 5.14937 7.5805 
-146.233 3.64937 7.79553 -146.31 3.14937 7.58241 -145.81 4.01881 7.79553 
-145.81 4.14937 7.85665 -145.81 4.64937 8.06881 -145.31 4.64937 7.87485 
-145.31 5.14937 8.05227 -146.75 2.14937 7.29553 -146.81 2.0755 7.29553 
-146.81 1.64937 7.10064 -146.31 1.56726 6.79553 -146.26 1.64937 6.79553 
-146.81 2.64937 7.56426 -144.81 5.14937 7.88104 -144.81 5.64937 8.03466 
-144.31 5.64937 7.96526 -143.81 5.37214 7.79553 -145.658 1.64937 6.33907 
-146.31 1.14937 6.61827 -145.81 1.43364 6.36116 -143.31 5.55958 7.79553 
-143.134 5.64937 7.79553 -141.81 4.04425 7.01225 -141.714 4.08218 7.04406 
-141.504 4.14937 7.13517 -141.31 4.22064 7.20686 -141.31 4.34414 7.29553 
-141.31 4.64937 7.48718 -142.31 5.14937 7.59379 -141.81 5.14937 7.66664 
-142.81 5.64937 7.75665 -146.31 3.57752 7.79553 -146.31 4.14937 8.07515 
-146.81 3.09312 7.79553 -146.298 4.64937 8.29553 -146.31 4.63431 8.29553 
-145.918 5.14937 8.29553 -145.81 5.14937 8.24799 -145.627 5.64937 8.29553 
-145.31 5.64937 8.171 -145.81 5.30938 8.29553 -147.165 1.64937 7.29553 
-147.31 2.14937 7.60972 -147.31 1.42074 7.29553 -146.81 1.14937 6.93162 
-146.569 1.14937 6.79553 -147.2 2.64937 7.79553 -147.31 2.50859 7.79553 
-144.81 6.14937 8.14836 -144.31 6.14937 8.09667 -143.81 5.64937 7.9106 
-143.81 6.14937 8.02387 -146.31 0.775212 6.49155 -146.219 0.905375 6.46078 
-146.04 1.14937 6.41212 -145.964 1.24595 6.39523 -143.31 5.64937 7.83097 
-143.31 6.14937 7.95432 -142.81 5.78315 7.79553 -141.08 4.302 7.29553 
-140.81 4.64937 7.55693 -140.81 4.40136 7.39352 -141.31 5.14937 7.75025 
-141.058 5.14937 7.79553 -142.31 5.64937 7.77252 -141.81 5.49766 7.79553 
-142.111 5.64937 7.79553 -141.31 5.25399 7.79553 -146.81 3.64937 8.07313 
-146.711 4.14937 8.29553 -146.81 4.04489 8.29553 -147.31 3.14937 8.1446 
-146.81 4.64937 8.54631 -146.31 5.14937 8.45755 -145.497 6.14937 8.29553 
-145.81 5.64937 8.36806 -145.81 6.14937 8.41626 -145.31 6.14937 8.23594 
-146.31 5.64937 8.54406 -147.31 1.64937 7.38653 -147.576 2.14937 7.79553 
-147.31 1.14937 7.21683 -147.421 1.14937 7.29553 -147.81 1.14937 7.59523 
-147.81 1.64937 7.77023 -146.755 0.64937 6.79553 -147.31 0.64937 7.16149 
-146.349 0.724151 6.50077 -147.31 2.64937 7.87613 -147.81 2.14937 7.97741 
-147.81 2.64937 8.25039 -144.81 6.64937 8.18729 -144.31 6.64937 8.14357 
-143.81 6.64937 8.07901 -143.31 6.64937 8.02104 -142.81 6.14937 7.89151 
-142.81 6.64937 7.9843 -142.31 6.14937 7.90399 -140.611 4.48154 7.45315 
-140.31 4.57756 7.55341 -140.31 4.64937 7.60619 -140.81 5.06594 7.79553 
-140.31 4.94303 7.79553 -140.81 5.14937 7.84584 -141.31 5.64937 7.93883 
-140.81 5.64937 8.05781 -141.81 5.64937 7.84454 -141.81 6.14937 7.97178 
-147.195 3.64937 8.29553 -147.31 3.49511 8.29553 -146.81 4.14937 8.34811 
-147.31 4.14937 8.5792 -147.535 3.14937 8.29553 -147.31 4.64937 8.75567 
-147.067 5.14937 8.79553 -146.81 5.14937 8.67172 -147.31 4.76467 8.79553 
-145.31 6.64937 8.28625 -145.81 6.64937 8.45779 -146.31 6.14937 8.60979 
-146.81 5.64937 8.74985 -146.81 6.02006 8.79553 -147.512 0.64937 7.29553 
-148.078 1.14937 7.79553 -147.81 0.64937 7.48834 -148.31 1.64937 8.1381 
-146.81 0.482441 6.79553 -146.399 0.64937 6.5186 -147.31 0.14937 7.04978 
-147.81 2.73895 8.29553 -148.308 2.14937 8.29553 -148.31 2.1456 8.29553 
-148.31 2.64937 8.536 -145.31 6.74905 8.29553 -144.81 7.14937 8.19606 
-144.31 7.14937 8.1458 -143.81 7.14937 8.10568 -143.31 7.14937 8.06335 
-142.81 7.14937 8.05153 -142.31 6.64937 8.00622 -140.251 4.60068 7.56978 
-140.128 4.64937 7.62264 -139.81 4.75484 7.718 -139.81 4.87784 7.79553 
-140.31 5.14937 7.93103 -139.81 5.14937 7.96826 -141.31 6.14937 8.06535 
-140.31 5.64937 8.17892 -140.81 6.14937 8.20467 -140.31 5.9664 8.29553 
-140.506 6.14937 8.29553 -141.81 6.64937 8.08374 -147.31 3.64937 8.36271 
-147.81 3.64937 8.6559 -147.731 4.14937 8.79553 -147.81 4.02342 8.79553 
-147.81 3.14937 8.46742 -147.81 4.64937 9.00692 -147.31 5.14937 8.90792 
-147.31 5.64937 8.97177 -146.908 5.64937 8.79553 -147.81 5.14937 9.12354 
-146.31 6.64937 8.64315 -145.81 7.14937 8.47768 -146.782 6.14937 8.79553 
-146.75 6.64937 8.79553 -147.31 6.14937 8.98564 -147.697 0.14937 7.29553 
-148.31 1.14937 7.98048 -148.274 0.64937 7.79553 -148.31 0.51576 7.79553 
-148.31 0.14937 7.71729 -147.81 0.14937 7.36501 -148.534 1.64937 8.29553 
-146.95 0.14937 6.79553 -146.81 0.14937 6.67999 -146.425 0.610975 6.52865 
-147.81 -0.0229055 7.29553 -147.81 -0.35063 7.13979 -147.31 -0.35063 6.73941 
-148.81 2.14937 8.66142 -148.66 2.64937 8.79553 -148.81 2.40993 8.79553 
-148.31 3.14937 8.77237 -145.239 7.14937 8.29553 -144.81 7.64937 8.19717 
-144.31 7.64937 8.15028 -143.81 7.64937 8.13477 -143.31 7.64937 8.11085 
-142.81 7.64937 8.11752 -142.31 7.14937 8.09069 -139.579 4.82745 7.79553 
-139.31 5.14937 8.03468 -139.31 4.91497 7.88742 -139.81 5.64937 8.28857 
-139.31 5.54848 8.29553 -139.757 5.64937 8.29553 -141.31 6.64937 8.1933 
-140.81 6.426 8.29553 -141 6.64937 8.29553 -140.31 6.14937 8.35471 
-139.81 6.14937 8.50169 -140.31 6.64937 8.52655 -141.81 7.14937 8.15907 
-148.032 3.64937 8.79553 -148.31 4.14937 9.15038 -148.31 4.64937 9.28078 
-148.141 5.14937 9.29553 -147.81 5.64937 9.19465 -147.991 5.64937 9.29553 
-146.81 6.98001 8.79553 -146.31 7.14937 8.63657 -145.81 7.64937 8.43444 
-146.31 7.64937 8.56325 -147.31 6.64937 8.99606 -147.81 6.14937 9.20992 
-148.69 1.14937 8.29553 -148.81 0.870043 8.29553 -148.81 0.64937 8.21384 
-148.425 0.14937 7.79553 -148.81 0.14937 8.06955 -148.31 -0.35063 7.54089 
-148.81 1.64937 8.4788 -146.81 0.0904419 6.63468 -146.75 0.14937 6.62906 
-146.605 0.354426 6.58523 -146.741 0.161754 6.62677 -148.006 -0.35063 7.29553 
-148.251 -0.85063 7.29553 -147.81 -0.792824 6.87112 -147.551 -0.623711 6.76646 
-147.3 -0.452069 6.64936 -147.192 -0.35063 6.63503 -148.969 2.14937 8.79553 
-148.81 2.64937 8.91112 -148.81 3.14937 9.13576 -149.31 2.14937 9.07501 
-148.31 3.64937 8.97982 -145.299 7.64937 8.29553 -145.31 7.67355 8.29553 
-144.81 8.14937 8.1493 -144.31 8.14937 8.1062 -143.81 8.14937 8.09403 
-143.31 8.14937 8.12897 -142.31 7.64937 8.16831 -142.81 8.14937 8.16229 
-139.111 4.94999 7.92758 -138.81 4.99459 8.049 -138.81 5.14937 8.17583 
-138.81 5.32367 8.29553 -139.31 5.64937 8.35906 -138.81 5.64937 8.53735 
-141.25 7.14937 8.29553 -140.81 6.64937 8.36294 -140.81 7.14937 8.46331 
-139.31 6.14937 8.65055 -139.81 6.64937 8.70906 -139.31 6.41414 8.79553 
-139.587 6.64937 8.79553 -140.31 7.14937 8.66502 -139.81 6.91781 8.79553 
-139.972 7.14937 8.79553 -141.81 7.64937 8.23046 -141.31 7.29731 8.29553 
-141.489 7.64937 8.29553 -148.522 4.14937 9.29553 -148.81 4.64937 9.68228 
-148.31 5.14937 9.39858 -148.31 5.64937 9.49711 -147.957 6.14937 9.29553 
-148.31 6.14937 9.51982 -147.31 7.14937 8.95392 -146.81 7.14937 8.77724 
-146.81 7.64937 8.69158 -145.81 8.14937 8.33642 -146.31 8.14937 8.43787 
-145.646 8.14937 8.29553 -146.81 8.14937 8.55877 -147.81 6.64937 9.20093 
-147.81 7.14937 9.17162 -148.81 1.14937 8.38382 -148.913 0.64937 8.29553 
-149.31 0.64937 8.63882 -149.31 1.14937 8.76966 -148.655 -0.35063 7.79553 
-149.111 0.14937 8.29553 -148.81 -0.35063 7.9156 -148.81 -0.704467 7.79553 
-149.225 1.64937 8.79553 -149.31 1.29823 8.79553 -148.31 -1.00284 7.29553 
-148.81 -0.85063 7.75062 -147.909 -0.90225 6.908 -149.295 2.64937 9.29553 
-148.997 3.14937 9.29553 -148.81 3.5457 9.29553 -149.579 2.14937 9.29553 
-149.31 1.64937 8.86947 -148.759 3.64937 9.29553 -145.31 8.14937 8.21798 
-144.81 8.64937 8.04455 -145.31 8.64937 8.09961 -144.31 8.64937 8.01186 
-143.81 8.64937 8.01051 -143.31 8.64937 8.0863 -142.81 8.64937 8.15471 
-142.31 8.14937 8.21812 -141.81 8.09716 8.29553 -142.31 8.64937 8.21475 
-138.772 5.0013 8.06321 -138.544 5.03568 8.18184 -138.504 5.14937 8.29553 
-138.283 5.64937 8.79553 -138.81 6.06316 8.79553 -138.915 6.14937 8.79553 
[...]
POINT_DATA 7508
SCALARS scalars float
LOOKUP_TABLE default
2.77556e-17 2.77556e-17 -0.387189 0 0 -0.0927408 -0.0552724 -0.625187 -0.694793 
0 0 0 -0.0854978 -0.239859 -0.484326 2.77556e-17 -0.404333 -1.28783 
-0.93444 -0.708485 0 -0.0994594 -0.676796 -0.607791 -2.77556e-17 -0.288659 -1.10834 
-0.816376 -1.50467 -1.1848 -1.47881 -1.39042 -1.37648 -1.38778e-17 -0.0954846 -0.16793 
-0.75529 0 2.08167e-17 -3.46945e-18 -0.18407 -1.31124 -0.567064 -1.16605 -1.52103 
-1.6727 -2.13873 -1.76865 -1.5549 -1.10898 -1.88896 0 0 0 
-0.636061 -0.744907 0 3.46945e-17 -1.5919 -1.38778e-17 -0.333793 -0.953629 -0.699403 
-1.32186 -2.0643 -2.40164 -2.41429 -2.43075 -2.22405 -1.55571 -1.0973 -1.55277 
-2.45363 -2.35295 -2.45832 -2.07702 0 -0.732009 -0.188061 -1.8098 -6.93889e-18 
-0.123338 -0.425902 -1.07584 -0.859067 -0.65765 -1.55915 -2.39678 -2.01143 -2.39906 
-2.51535 -2.95078 -2.58146 -3.00833 -1.49895 -1.49097 -1.13741 -0.620518 -0.638766 
-1.97929 -2.66375 -3.09423 -2.81519 -2.29001 -6.93889e-18 -0.281821 1.38778e-17 -2.19902 
-2.18948 1.38778e-17 0 6.93889e-18 6.93889e-18 -0.136122 -0.457174 -1.34098 -1.14991 
-2.02905 -2.39446 -2.90651 -2.37607 -3.33674 -3.33395 -3.45563 -3.37298 -3.63906 
-3.41345 -3.50439 -1.4635 -2.00829 -1.42643 -0.763468 -0.538971 -2.33635 -2.31897 
-3.51536 -3.25099 -2.55119 -2.98625 -1.38778e-17 2.77556e-17 0 2.77556e-17 -2.28419 
-2.7319 -2.15261 -1.38778e-17 -0.265827 -1.38778e-17 -0.963604 -0.872447 -1.81608 -1.48256 
-1.73833 -1.06609 -2.87022 -3.24931 -3.23943 -2.89338 -3.75371 -3.7512 -3.92705 
-3.77131 -4.14446 -3.80436 -4.12548 -1.60325 -2.27442 -1.23265 -1.34462 -1.7483 
-2.12627 -0.376779 -0.919345 -1.38778e-17 -2.44673 -2.52029 -2.95749 -3.91587 -3.66186 
-3.40898 -3.1677 -2.48941 -2.94185 -2.27954 -2.77556e-17 1.38778e-17 -0.082623 -0.698721 
-0.392005 -0.786591 -1.44548 -1.28132 -1.62566 -2.0898 -3.21153 -3.18414 -3.33351 
-3.73876 -3.10931 -4.14338 -4.34386 -4.1366 -4.23673 -4.20117 -4.52729 -4.49952 
-4.50086 -4.77079 -1.11499 -2.01994 -1.39709 -2.63748 -0.317312 -1.38778e-17 -0.565505 
-3.03412 -3.00463 -3.00393 -3.42034 -4.28154 -4.3179 -4.0692 -3.83309 -3.60496 
-3.39284 -2.73899 1.38778e-17 6.93889e-18 0 -0.169096 -0.615567 -0.44589 -1.9131 
-1.1301 -1.75978 -1.44402 -1.67477 -2.55504 -3.31466 -3.7656 -4.09632 -4.06592 
-3.36747 -4.56132 -4.53828 -4.89022 -4.57792 -4.93239 -4.8693 -4.91289 -4.84331 
-5.17309 -5.22554 -0.920859 -2.25803 -1.82808 -1.7622 -1.48244 -1.02202 -2.85978 
-0.211924 -0.0658984 0 -0.874151 -0.579396 -0.151656 -3.51652 -3.78206 -3.73964 
-3.83611 -4.55899 -4.72916 -4.48921 -4.26749 -4.05115 -3.84843 -3.19826 0 
-0.315877 1.38778e-17 -0.988919 -0.737639 -0.973195 -2.38716 -2.02975 -2.29772 -1.62305 
-1.49995 -2.04728 -3.01597 -3.97329 -4.62785 -4.99694 -5.21234 -5.28447 -5.43938 
-5.44167 -5.234 -5.28716 -5.58679 -5.5705 -5.61509 -2.64652 -2.53113 -2.34216 
-1.58522 -1.9347 -1.05726 -3.12255 0 0 6.93889e-18 0 -0.765274 
-0.561697 2.77556e-17 0 0 0 -3.6871 -3.93925 -4.34561 -4.04269 
-4.24041 -4.99038 -5.01508 -5.13681 -4.90631 -4.69239 -4.496 -3.65994 -4.3031 
-2.77556e-17 -2.77556e-17 -0.213522 -0.383025 -0.847155 -0.740734 -2.83693 -2.2469 -2.44248 
-1.26033 -1.53598 -1.13471 -1.30752 -1.90917 -1.44401 -1.55262 -3.42061 -2.9524 
-3.10281 -4.83301 -5.51261 -5.3643 -5.72649 -5.74078 -6.05458 -5.90352 -5.55737 
-5.89627 -5.65817 -5.93873 -5.56673 -6.23543 -5.9444 -6.27564 -2.7598 -2.44078 
-2.83592 -3.23543 -1.37566 -2.21454 -1.52198 -1.22493 -3.52896 -3.3467 -0.492499 
-1.10618 0 -4.4519 -4.55138 -4.65863 -4.31489 -3.61525 -4.68646 -5.38489 
-5.54309 -5.77789 -5.32329 -5.11861 -4.88953 -4.39921 -3.89173 -3.401 -3.91592 
-2.77556e-17 0 -0.149356 -0.351425 -0.749787 -0.845682 -2.3921 -1.02532 -0.496787 
-0.865016 -1.84683 -1.73464 -1.384 -1.3059 -2.92082 -2.90465 -5.13861 -5.65191 
-5.85721 -5.86811 -6.1111 -6.09415 -6.42824 -6.35922 -6.23071 -6.59409 -6.10519 
-5.77332 -6.29142 -6.58933 -6.42181 -6.56221 -6.89669 -6.47569 -3.00355 -2.75691 
-2.41463 -3.7629 -1.97324 -1.89357 -1.6457 -3.97767 -0.172637 -0.338995 -0.745765 
2.77556e-17 0 -0.903542 -5.0151 -4.90891 -5.28737 -4.09177 -4.56509 -5.45638 
-5.9602 -6.18611 -6.03608 -6.43012 -5.74883 -5.40528 -4.91232 -4.41879 -3.93408 
-3.41942 -3.44041 -1.38778e-17 1.38778e-17 6.93889e-18 -0.106298 -0.122874 -0.136388 -1.38778e-17 
1.38778e-17 -0.729687 -2.37597 -1.83112 -0.249747 -0.349831 -0.394977 -0.765357 -0.560611 
-1.27855 -0.72392 -2.91618 -6.07848 -6.40632 -6.22061 -6.78429 -6.52239 -6.91134 
-6.67021 -6.93115 -7.03364 -7.26768 -6.90935 -6.68791 -7.00026 -7.07867 -6.65777 
-7.16458 -7.22557 -6.96358 -3.39154 -2.51515 -2.61862 -3.00851 -3.5411 -3.92857 
-4.32403 -1.72617 -2.23984 -1.30864 -4.59822 -0.144056 -1.38778e-17 -1.38778e-17 -0.683543 
-0.361858 -4.84396 -5.16689 -5.54236 -5.44881 -5.51434 -5.89915 -5.88911 -6.05218 
-5.71868 -6.35367 -6.48889 -6.12877 -6.52697 -6.55941 -5.89492 -5.76783 -5.4161 
-4.91975 -4.4258 -3.94443 -3.37896 -3.44944 -2.93866 0 0 -6.93889e-18 
-0.0650726 3.46945e-18 -3.46945e-18 -1.38778e-17 0 1.38778e-17 1.38778e-17 -1.82794 -2.38858 
-2.02657 1.38778e-17 -2.77556e-17 2.77556e-17 -0.281215 2.77556e-17 -2.77556e-17 -0.153032 -0.71797 
-1.28095 -1.83406 -0.909309 -0.0975941 -2.41724 -6.2522 -6.48869 -6.69162 -6.73156 
-7.08298 -7.31086 -7.10352 -7.57997 -7.38491 -7.47466 -7.26023 -7.29079 -6.58513 
-6.68147 -6.82224 -6.48733 -6.32343 -6.56779 -3.27401 -3.00674 -2.71587 -3.86156 
-3.38998 -3.47175 -4.18322 -4.68408 -4.74098 -1.48484 -2.02954 -1.94031 -0.978878 
-1.38778e-17 0 -0.0435401 -0.491606 3.46945e-18 3.46945e-17 -5.1816 -5.72954 -5.65451 
-5.18883 -5.5805 -6.29865 -6.4724 -6.43067 -6.63448 -6.14611 -5.92847 -5.90698 
-6.01244 -6.01076 -6.03908 -6.06625 -5.42551 -5.1741 -4.94763 -4.45789 -3.97414 
-3.46561 -3.19141 -2.94387 -2.4175 0 -2.00386 0 -1.38778e-17 -1.38778e-17 
-0.719614 -1.29099 -0.982052 -1.85833 -0.710418 6.93889e-18 -0.0564844 6.93889e-18 -6.97779 
-7.25077 -7.30676 -7.49509 -7.58178 -7.3873 -7.83519 -7.6082 -7.77333 -7.83334 
-7.54402 -7.22974 -7.07729 -6.61093 -6.57661 -6.05023 -6.16753 -6.18035 -6.11797 
-5.84259 -5.65833 -5.92311 -2.58612 -3.0086 -2.22607 -3.69131 -2.92728 -3.20606 
-2.7268 -4.13362 -4.60073 -4.9958 -1.27001 -1.58281 -2.05862 -1.82288 -1.05468 
6.93889e-18 0 -0.37577 -0.201313 2.77556e-17 -6.10252 -5.54515 -6.0922 -6.65192 
-6.53012 -6.91273 -6.16572 -6.86344 -7.07467 -5.97377 -5.41691 -5.44993 -5.3997 
-5.44461 -5.39756 -5.86319 -5.48304 -5.63072 -5.51989 -4.97201 -4.68856 -4.5224 
-4.0307 -3.52518 -3.09594 -2.94991 -2.41616 -1.86179 -1.84969 -0.0949336 -1.29997 
-0.958494 -0.083643 -0.689116 -0.162398 0 0 -7.88789 -7.76188 -8.04688 
-8.15705 -7.98079 -8.08048 -7.38041 -7.69484 -7.48688 -7.19624 -6.89414 -7.03096 
-6.37586 -5.94998 -5.98335 -5.50967 -5.45867 -5.53601 -5.64332 -5.18352 -4.99222 
-5.2315 -2.45181 -1.97235 -3.57858 -3.08406 -2.59165 -2.24773 -2.10204 -4.07329 
-4.57035 -5.01576 -1.33771 -1.24963 -1.77499 -1.73958 -1.50705 -1.30196 -0.764191 
-0.763636 -0.331464 -2.77556e-17 0 -2.77556e-17 0 6.93889e-18 -5.5177 -6.02779 
-7.04103 -6.51945 -7.2506 -6.51307 -6.01053 -7.59393 -4.91715 -4.94526 -4.89548 
-4.96402 -4.88871 -5.01348 -4.89456 -5.5045 -4.97262 -5.52369 -5.40746 -4.97241 
-4.9746 -4.54965 -4.27966 -4.12688 -3.61784 -2.99718 -3.10352 -2.45677 -1.30435 
-1.33519 -1.8818 1.38778e-17 0 -0.941962 -0.0461596 0 -0.673945 -0.207161 
-8.42965 -8.02393 -8.71275 -8.44352 -8.39712 -7.98985 -8.04537 -7.66594 -6.78127 
-7.15094 -7.43278 -7.04483 -6.72646 -6.43966 -6.25591 -5.81902 -5.62188 -5.28979 
-5.34663 -5.02218 -4.93067 -4.84688 -4.819 -5.07867 -4.33259 -4.51121 -4.69591 
-2.05783 -1.35858 -1.79366 -3.52071 -3.41102 -4.01889 -3.03271 -2.5355 -2.06984 
-1.94483 -1.61484 -4.51657 -4.51224 -5.00988 -0.828612 -0.814121 -1.26549 -1.05854 
-0.90259 -0.774247 -0.348677 0 0 -2.77556e-17 -5.5111 -5.60744 -7.01867 
-7.42449 -7.30958 -6.53548 -6.40027 -6.02095 -7.03336 -7.01793 -4.43383 -4.49979 
-4.39301 -4.51785 -4.38375 -4.37815 -4.38296 -4.62282 -4.39572 -4.45081 -4.44896 
-4.43864 -4.41686 -4.17036 -4.00819 -3.74522 -3.23081 -2.85531 -2.56333 -1.91752 
-0.966087 -1.39849 0 -1.04083e-17 -3.46945e-18 -0.686711 -0.279388 6.93889e-18 1.38778e-17 
-8.02183 -8.52147 -7.52158 -8.84056 -8.39066 -8.39576 -7.91989 -8.2038 -7.52908 
-6.60542 -7.3759 -6.90253 -6.98025 -6.45824 -6.57127 -6.37863 -6.217 -6.09164 
-5.77188 -5.19316 -5.11513 -4.84462 -4.63483 -4.57585 -4.19084 -4.04576 -3.66947 
-3.90641 -4.0267 -4.19495 -4.2369 -1.29093 -0.8215 -3.53075 -3.02619 -3.03901 
-4.02768 -2.52972 -2.04851 -1.55356 -1.53538 -1.1305 -1.04948 -4.52231 -5.0169 
-0.323245 -0.294509 -0.61587 -0.465407 -0.361212 0 -2.77556e-17 -5.55246 -7.53237 
-6.6044 -7.05723 -6.0414 -6.1178 -3.88048 -3.8877 -3.91231 -3.86979 -4.07481 
-3.86619 -3.86922 -3.88522 -4.25334 -3.91397 -3.93254 -4.354 -4.18107 -4.32944 
-3.86218 -3.79987 -3.85695 -3.34504 -2.697 -2.73553 -1.8957 -2.11245 -0.990442 
-0.77189 -1.84974 -1.5037 -0.293234 -0.0674739 0 -8.03173 -8.5309 -8.84098 
-8.38062 -7.88613 -7.88706 -7.87766 -6.87173 -7.35481 -6.36106 -6.4326 -6.21874 
-6.04036 -5.61476 -5.48298 -4.98721 -4.81796 -4.45825 -4.57095 -4.15313 -3.97187 
-3.53611 -3.34962 -3.00292 -3.17063 -3.36663 -3.57222 -3.52039 -4.0997 -3.68201 
-0.65219 -0.178511 -3.60216 -3.43131 -4.08826 -2.54482 -2.62361 -3.11005 -4.57724 
-2.101 -1.68357 -1.21613 -1.06682 -0.603262 -0.496612 -5.06587 2.77556e-17 -1.38778e-17 
1.38778e-17 0 0 -0.262038 -1.38778e-17 0 1.38778e-17 0 0 
0 -5.6349 -5.50159 -5.11854 -7.57172 -7.09545 -6.70727 -6.17491 -7.18969 
-3.37187 -3.36389 -3.38006 -3.39876 -3.40957 -3.86356 -3.3533 -3.35023 -3.73927 
-3.36427 -3.39674 -3.4433 -3.92329 -3.3995 -3.89864 -3.54184 -3.32881 -3.83398 
-2.73656 -3.4701 -3.47087 -2.89306 -2.22919 -0.998845 -0.898788 -1.81489 -1.63242 
-0.999154 -0.20657 6.93889e-18 6.93889e-18 0 -8.08209 -8.0176 -8.5777 -8.85329 
-8.39506 -8.3522 -7.90301 -7.4721 -6.85598 -6.70283 -6.33732 -7.36676 -6.85455 
-6.04744 -5.81114 -5.89918 -5.94934 -4.82024 -4.9517 -5.4033 -5.30188 -4.35582 
-4.70959 -4.29801 -4.03652 -4.10392 -3.93446 -3.48656 -3.3354 -2.82127 -2.87755 
-2.64447 -2.33695 -2.4816 -2.59295 -2.70467 -2.95736 -2.8538 -3.03124 -3.18096 
0 -0.143075 0 -3.73285 -4.11228 -3.27444 -2.80695 -2.33773 -4.60979 
-1.89258 -1.3112 -0.775546 -0.40498 -0.238136 -0.162049 0 -5.76582 -5.15787 
-5.30032 -4.67998 -7.58788 -7.67371 -6.23623 -6.85382 -7.25586 -2.87229 -3.01615 
-2.83785 -2.82593 -2.82607 -3.07441 -3.05792 -2.83301 -2.84005 -3.35207 -2.87179 
-2.91981 -3.37172 -3.03416 -3.27043 -2.78684 -2.72591 -2.94027 -2.79132 -2.70873 
-3.14859 -2.98686 -2.33163 -0.296275 -1.74859 -1.10623 -0.981864 5.55112e-17 -8.16233 
-8.65481 -8.88904 -8.44061 -7.9145 -7.38746 -6.84805 -6.31568 -5.77262 -4.80053 
-5.27845 -4.70266 -4.20954 -4.49439 -3.75823 -3.80895 -3.90125 -3.65567 -2.68508 
-3.21323 -2.5736 -2.15956 -2.24016 -1.91897 -1.67614 -1.90312 -2.51279 -2.01653 
-2.41691 -2.07855 -2.35269 -2.42889 -2.66859 -3.13147 -2.63596 1.38778e-17 -4.19997 
-3.90779 -4.36561 -3.47261 -3.03272 -2.58503 -2.17366 -1.46799 -1.80251 -0.97953 
-2.77556e-17 -2.77556e-17 -0.74785 -0.50386 -0.809611 -2.77556e-17 0 -2.77556e-17 1.38778e-17 
-5.9329 -6.39264 -4.8364 -5.47586 -7.79454 -8.27556 -7.01488 -7.47216 -7.3196 
-2.84639 -2.30838 -2.8524 -2.28132 -2.54452 -2.86482 -2.28923 -2.31311 -2.34554 
-2.3834 -2.96897 -2.39858 -2.45595 -2.85198 -2.22902 -2.53107 -2.82815 -2.28942 
-2.53598 -2.98044 -2.49286 -2.51682 -2.46427 -2.41531 -1.8143 -0.30493 0 
-2.77556e-17 -1.6732 -1.162 -0.928884 -0.438624 -8.76185 -8.94751 -8.50262 -7.9493 
-8.16608 -6.87446 -7.56563 -7.40973 -6.31042 -5.75687 -5.2133 -4.6822 -4.16591 
-4.63817 -4.12361 -3.60392 -3.13952 -3.00476 -2.66044 -2.50876 -2.04482 -2.00285 
-1.82948 -1.50507 -1.60525 -1.08349 -1.20203 -1.34175 -1.88172 -2.1908 -1.4948 
-2.23028 -2.51085 -1.81811 -1.97049 -2.22593 -2.02277 -3.60617 -4.08987 -4.57681 
-3.17978 -2.67355 -2.83913 -2.51387 -2.15984 -1.08451 -1.45949 -1.85736 -2.77556e-17 
-1.14725 -0.741374 -0.427726 -5.51284 -6.02546 -6.57212 -5.02115 -7.94129 -8.30926 
-8.79013 -7.20889 -7.06019 -7.65412 -8.11055 -2.31147 -1.76567 -1.75144 -1.73816 
-2.31799 -2.33006 -2.27512 -1.7453 -2.32417 -1.75828 -2.24041 -1.85121 -1.82222 
-2.15164 -1.94572 -2.1608 -1.76878 -1.81427 -2.00562 -2.42536 -2.06546 -1.86388 
-1.67108 -0.266431 0 -2.77556e-17 -1.20017 -0.926136 -0.497709 -0.254624 -8.97007 
-8.52729 -7.99778 -8.12475 -8.01727 -6.34641 -6.91919 -7.42286 -7.50995 -5.76015 
-5.18263 -4.79803 -4.61708 -4.21305 -4.07581 -3.67044 -3.53323 -2.97599 -2.91855 
-2.33141 -2.47623 -1.89093 -1.70211 -1.42477 -1.35172 -1.00403 -0.871253 -0.532806 
-0.59463 -1.16818 -0.644491 -0.700474 -0.71839 -0.812496 -1.6076 -1.75531 -0.862225 
-1.23162 -1.65431 -1.47973 -1.12981 -1.85466 -2.0758 -1.3867 -1.48987 -3.71615 
-4.1412 -4.83376 -5.25755 -3.30729 -3.26613 -2.9099 -2.90005 -2.58392 -2.41613 
-1.57129 -2.23126 -2.2448 0 -0.889187 -1.3011 -0.767419 0 0 
-0.674387 -0.486238 -5.68878 -6.12969 -6.77853 -6.35208 -8.41656 -8.57482 -8.89662 
-7.27941 -7.01048 -7.84946 -8.31083 -8.76244 -1.78855 -1.85868 -1.20321 -1.18934 
-1.56101 -1.87945 -1.31409 -1.19866 -1.83184 -1.2152 -1.24268 -1.32398 -1.88058 
-1.35755 -1.89945 -1.42136 -1.49436 -1.625 -1.54742 -1.66243 -1.12319 -1.1675 
-1.51542 -2.081 -1.56382 -1.93519 -1.70984 2.77556e-17 0 -1.26838 -0.960123 
-0.622943 -0.239759 0 1.38778e-17 0 -9.03898 -8.58935 -8.25195 -8.71536 
-7.63635 -5.79503 -6.40549 -6.26105 -7.00847 -6.77413 -6.437 -7.08714 -5.30209 
-5.18585 -4.61924 -4.61082 -4.0439 -4.06618 -3.48795 -3.51594 -2.84811 -2.90122 
-3.33034 -2.32239 -1.77648 -1.85609 -1.28029 -1.50133 -0.848656 -0.741017 -0.416664 
-0.471419 0 0 -2.77556e-17 0 0 -0.265749 -0.538413 -0.656377 
-0.959631 -0.281211 -1.25902 -0.534931 -0.610099 -0.605586 -1.12966 -0.894003 -4.01402 
-4.41824 -5.1112 -5.51109 -5.92631 -3.63173 -3.62926 -3.30023 -2.56532 -2.99743 
-2.00835 -1.7435 -2.72614 -2.27288 -1.49076 -1.05973 -0.845028 2.77556e-17 2.77556e-17 
-0.832124 -0.588952 -0.939815 -6.59509 -9.04811 -7.43722 -7.26871 -7.68497 -8.10538 
-8.44852 -8.94835 -9.22602 -1.78477 -1.20493 -0.849747 -0.926304 -1.1748 -0.731976 
-1.18849 -0.602903 -0.631247 -1.02285 -0.691198 -0.741272 -0.815732 -1.29791 -0.888542 
-0.921832 -0.974219 -0.970297 -1.03811 -0.987577 -1.18967 -1.0037 -1.02598 -1.5896 
-1.05232 -1.61263 -1.62705 -1.4201 -0.974902 -0.792062 -0.232352 -0.129007 -6.93889e-18 
-9.16553 -8.42682 -8.86731 -7.78878 -9.30834 -7.25015 -5.23428 -5.86118 -6.62964 
-6.49983 -5.97748 -7.13307 -5.19053 -4.63278 -4.43663 -4.04452 -3.89357 -3.48167 
-2.52998 -2.31097 -3.47517 -2.89597 -2.04052 -1.75246 -1.22618 -1.19625 -1.73625 
-0.357384 -0.324582 -0.657056 0 2.77556e-17 -2.77556e-17 -2.77556e-17 0 -5.55112e-17 
2.77556e-17 -0.236057 -0.240109 -0.342501 -6.93889e-18 -6.93889e-18 -0.782951 -0.399197 -0.427842 
-0.678664 1.9082e-17 1.73472e-17 -0.104567 -0.794007 -0.619999 -0.823683 -4.3471 -3.97669 
-4.73009 -5.40819 -5.15076 -5.79142 -6.19018 -4.01008 -3.70953 -3.42905 -3.16351 
-2.19118 -1.93451 -2.36016 -2.90306 -2.45498 -0.998439 -1.24907 -1.66147 -2.77556e-17 
-1.0331 -0.704926 -0.392887 -6.87224 -7.55078 -7.10807 -7.94967 -8.35635 -8.7746 
-8.5359 -9.20912 -9.65285 -9.40241 -9.55937 -0.990697 -0.579316 -0.586048 -0.55041 
-0.599856 -0.600961 -0.591004 -0.37084 -0.105931 -0.0496845 -0.098719 -0.191169 -0.694106 
-0.281222 -0.321122 -0.361531 -0.445634 -0.360383 -0.402669 -0.453308 -0.517218 -0.533953 
-1.08876 -0.772296 -1.09647 -1.11867 -1.11918 -0.886622 -0.19258 0 0 
-8.5801 -9.03731 -7.92209 -8.10872 -9.46966 -7.27128 -4.91785 -5.3329 -5.72389 
-6.12091 -6.78091 -6.57181 -4.6739 -4.06953 -2.30886 -2.3219 -3.51325 -3.02206 
-2.90208 -1.17749 -0.642639 -1.66002 0 0 -0.33379 -0.236913 2.77556e-17 
0 2.77556e-17 0 2.77556e-17 0 -1.38778e-17 0 0 -0.136616 
-5.20417e-18 0 -0.364751 -0.297531 -4.60124 -4.64633 -4.9946 -4.33051 -5.5926 
-5.37813 -6.02668 -6.48443 -4.25311 -4.46632 -4.10604 -3.85228 -3.59159 -3.33658 
-2.53613 -2.37248 -2.06449 -2.58884 -2.64117 -3.07427 -1.74683 -1.38629 2.77556e-17 
-1.19419 -0.434193 -1.05928 -0.711189 -2.77556e-17 0 0 -2.77556e-17 -7.23566 
-7.84345 -7.72187 -8.2307 -6.79098 -8.62462 -9.02738 -9.44373 -9.87789 -9.65477 
-9.87023 -0.162231 -0.227043 -0.0707921 2.08167e-17 0 -0.247349 2.08167e-17 1.38778e-17 
1.38778e-17 -2.08167e-17 0 2.08167e-17 -0.00914123 -1.38778e-17 1.38778e-17 0 0 
0 0 0 0 0 -1.38778e-17 -2.77556e-17 0 -1.38778e-17 
6.93889e-18 -6.93889e-18 -0.329022 -2.77556e-17 0 0 2.77556e-17 -0.153702 -0.239968 
-0.586363 -0.0404047 -1.38778e-17 6.93889e-18 -0.919273 -0.598614 -0.590426 -0.586038 -0.378604 
-0.196742 0 0 -8.78405 -9.23262 -7.44659 -8.3215 -7.65 -4.76879 
-5.44616 -5.6043 -6.28503 -6.97341 -6.48639 -4.13239 -4.47044 -4.16584 -3.98244 
-2.22553 -1.7411 -2.33256 -3.59416 -2.95049 -2.66715 -1.16301 -0.617479 -0.15209 
0 1.38778e-17 -6.93889e-18 -0.2089 0 0 -2.77556e-17 0 0 
-5.03749 -5.72323 -5.73925 -5.41028 -6.08093 -6.42307 -4.39991 -4.70604 -4.31573 
-4.53198 -4.00971 -3.75607 -3.48663 -2.79114 -2.46302 -2.11364 -2.92557 -1.41082 
-1.7854 0 -2.77556e-17 0 2.77556e-17 -0.387316 -1.06175 -0.670742 -7.4686 
-8.14303 -8.51983 -7.78501 -8.90503 -7.11032 -9.29278 -9.69667 -10.12 -10.1103 
-9.44692 -1.38778e-17 2.77556e-17 0 -1.38778e-17 0 0 -6.93889e-18 0 
0 0 0 1.73472e-18 2.77556e-17 6.93889e-18 1.38778e-17 1.38778e-17 0 
-0.0383639 -0.0540004 0 3.46945e-18 -0.59608 -0.0590242 -0.0797768 -0.046368 -0.037747 
0 1.38778e-17 0 -9.01314 -7.36908 -7.9088 -8.56843 -8.11633 -7.82571 
-4.90957 -4.94996 -5.22943 -5.78091 -5.63495 -7.18203 -6.71501 -5.98891 -6.32526 
-6.01215 -4.23685 -4.38889 -1.75702 -2.39534 -3.08649 -3.71318 -3.53407 -2.51644 
-1.18277 -0.791278 -0.617877 -0.133416 1.38778e-17 0 -5.09274 -6.1078 -5.78889 
-6.43673 -5.48514 -6.7689 -4.79493 -4.7166 -4.93505 -4.42508 -4.16543 -3.88347 
-3.1828 -3.5622 -2.84351 -2.48627 -2.13502 -1.61535 2.77556e-17 -0.255669 0 
-1.42531 -1.01086 -0.390081 -8.27801 -8.82607 -9.19906 -7.44278 -8.11979 -9.58073 
-9.97545 -10.3827 -10.3669 -9.69159 0 0 -6.93889e-18 -6.93889e-18 0 
0 0 1.38778e-17 -1.38778e-17 0 0 -9.27203 -8.84433 -7.41654 
-7.6799 -8.34481 -5.0801 -5.27561 -5.51291 -6.96203 -6.69604 -6.50852 -6.24158 
-3.81212 -4.57184 -4.37941 -3.96659 -1.84909 -1.3968 -2.25653 -3.18933 -2.64065 
-1.20976 -0.694039 -0.625191 -0.121148 1.38778e-17 0 -5.19566 -6.47236 -6.16946 
-6.78552 -5.88166 -7.10825 -5.61103 -5.0936 -5.18451 -5.34514 -4.84296 -4.56739 
-4.25962 -3.44115 -3.92085 -3.83191 -3.21132 -2.84972 -2.46462 -1.86858 0 
2.77556e-17 2.77556e-17 -1.75552 -1.31511 -0.823931 -0.560573 0 -0.275867 -8.46469 
-8.5402 -9.14294 -8.87644 -9.50416 -9.88107 -7.78269 -7.45803 -8.45851 -8.13013 
-10.2698 -10.6695 -10.6199 -9.95023 -9.54591 -9.13865 -8.3565 -8.72091 -7.23417 
-7.97695 -7.54103 -5.04395 -4.78873 -5.77837 -5.45248 -7.05161 -6.79852 -6.06077 
-3.8766 -3.37084 -4.07947 -4.31303 -1.31977 -1.99186 -2.17491 -2.67328 -3.1434 
-0.777269 -0.220811 0 -1.38778e-17 -6.84812 -6.56143 -6.28511 -7.14816 -6.02292 
-5.77095 -5.51997 -5.25713 -5.57466 -4.95295 -4.52161 -4.03929 -3.56547 -3.51105 
-3.0903 -2.57408 -2.10525 -2.00407 -1.48798 -0.962816 -0.672659 -0.0974893 0 
2.77556e-17 -8.79876 -9.47055 -9.04623 -9.8226 -10.1895 -7.81643 -7.51233 -8.81061 
-8.49229 -8.18306 -10.569 -10.964 -10.8945 -10.2191 -9.83131 -9.43878 -9.03296 
-8.46703 -8.30147 -7.87701 -7.33783 -4.58182 -5.32384 -5.83017 -5.62029 -6.36636 
-7.1113 -6.18369 -3.54249 -3.69173 -4.33852 -3.93988 -1.51774 -0.983819 -1.96834 
-2.88158 -2.43044 -3.12512 -0.829107 -0.370547 2.77556e-17 0 -7.22889 -6.95341 
-6.68603 -6.42614 -6.18377 -6.07244 -5.87197 -5.37382 -4.88061 -4.38676 -4.02501 
-3.87967 -3.37168 -3.00657 -2.12107 -2.50338 -2.16201 -1.51936 -0.725174 -0.985592 
-0.764196 -0.299054 -1.38778e-17 0 -1.38778e-17 -9.81146 -9.48471 -9.10086 -10.1587 
-10.5127 -7.89294 -7.61178 -9.17511 -8.86593 -9.35501 -8.56385 -8.27987 -10.8812 
-11.2648 -11.1999 -10.5072 -10.1358 -9.75444 -9.35593 -8.6323 -8.70212 -8.2348 