# vtk DataFile Version 4.2
3D Slicer output. SPACE=LPS
ASCII
DATASET POLYDATA
POINTS 19684 float
-202.562 479.513 17.6895 -202.562 479.513 17.6895 -202.562 479.513 17.6895 
-202.562 479.513 17.6895 -202.562 479.513 17.6895 -202.562 479.513 17.6895 
-202.562 479.513 17.6895 -202.562 479.513 17.6895 -202.431 479.449 17.9233 
-202.43 479.45 17.9247 -202.43 479.45 17.9242 -202.431 479.45 17.924 
-202.431 479.449 17.923 -202.432 479.449 17.9219 -202.431 479.45 17.9234 
-202.432 479.449 17.9214 -202.43 479.45 17.9251 -202.43 479.45 17.9249 
-202.43 479.45 17.9247 -202.431 479.449 17.9227 -202.43 479.45 17.9247 
-202.432 479.449 17.9208 -202.432 479.449 17.9213 -202.432 479.449 17.9204 
-202.432 479.449 17.9205 -202.432 479.449 17.9204 -201.648 477.587 19.5605 
-201.648 477.586 19.5605 -201.648 477.587 19.5605 -201.648 477.587 19.5605 
-201.648 477.587 19.5605 -201.648 477.587 19.5605 -201.648 477.586 19.5605 
-201.648 477.586 19.5606 -204.833 479.74 16.4018 -204.833 479.74 16.4018 
-204.833 479.74 16.4018 -202.639 478.109 17.9287 -202.639 478.109 17.9287 
-202.639 478.109 17.9287 -202.639 478.108 17.9287 -202.639 478.108 17.9287 
-202.639 478.109 17.9287 -202.639 478.109 17.9287 -202.639 478.108 17.9287 
-202.716 477.928 18.0006 -202.716 477.928 18.0006 -202.716 477.928 18.0007 
-202.716 477.928 18.0007 -202.716 477.928 18.0006 -202.716 477.928 18.0007 
-202.716 477.928 18.0006 -202.716 477.928 18.0006 -202.716 477.928 18.0007 
-202.716 477.928 18.0006 -202.716 477.928 18.0007 -202.716 477.928 18.0006 
-202.716 477.928 18.0007 -202.723 477.899 17.8103 -202.723 477.899 17.8103 
-202.723 477.899 17.8103 -202.73 477.893 17.4024 -202.73 477.893 17.4024 
-202.73 477.893 17.4024 -202.73 477.893 17.4024 -202.73 477.893 17.4024 
-202.73 477.893 17.4024 -202.73 477.893 17.4024 -202.73 477.893 17.4024 
-202.73 477.893 17.4024 -202.73 477.893 17.4024 -202.73 477.893 17.4024 
-202.73 477.893 17.4024 -202.691 477.233 18.5958 -202.691 477.233 18.5958 
-202.691 477.233 18.5958 -202.691 477.233 18.5958 -202.691 477.233 18.5958 
-206.243 479.034 16.1233 -206.243 479.034 16.1233 -206.243 479.034 16.1233 
-206.644 478.877 15.8085 -206.644 478.877 15.8085 -206.644 478.877 15.8085 
-206.644 478.877 15.8085 -199.944 473.28 21.6702 -199.934 473.285 21.7153 
-199.965 473.256 21.7005 -199.952 473.27 21.6876 -199.949 473.272 21.6854 
-199.95 473.271 21.6944 -199.95 473.27 21.7052 -199.947 473.272 21.7028 
-199.949 473.27 21.707 -199.953 473.267 21.7005 -199.955 473.265 21.6983 
-199.95 473.271 21.687 -199.95 473.271 21.6885 -199.951 473.269 21.6988 
-199.952 473.268 21.6979 -199.425 472.479 22.3424 -199.425 472.48 22.3424 
-199.425 472.479 22.3424 -199.425 472.479 22.3424 -199.425 472.479 22.3424 
-199.425 472.479 22.3424 -199.999 472.832 21.5957 -199.999 472.832 21.5957 
-199.999 472.832 21.5957 -199.999 472.832 21.5957 -199.999 472.832 21.5957 
-199.999 472.831 21.5956 -199.999 472.832 21.5957 -199.998 472.832 21.5957 
-199.998 472.832 21.5957 -199.999 472.832 21.5957 -199.999 472.831 21.5956 
-199.999 472.831 21.5956 -199.999 472.831 21.5956 -199.999 472.832 21.5957 
-199.999 472.831 21.5957 -199.998 472.831 21.5957 -199.999 472.831 21.5956 
-199.999 472.831 21.5956 -199.999 472.831 21.5956 -199.999 472.831 21.5956 
-197.583 470.796 25.0475 -197.556 470.774 25.0531 -197.57 470.785 25.0503 
-197.57 470.785 25.0503 -197.467 470.775 25.3526 -197.467 470.775 25.3526 
-197.467 470.775 25.3526 -197.467 470.774 25.3526 -197.467 470.774 25.3526 
-197.467 470.774 25.3526 -197.467 470.775 25.3526 -197.467 470.774 25.3526 
-197.467 470.774 25.3526 -198.491 471.424 23.2144 -198.491 471.424 23.2144 
-198.491 471.424 23.2144 -198.491 471.424 23.2144 -198.491 471.424 23.2144 
-198.491 471.424 23.2144 -198.491 471.424 23.2144 -197.687 470.659 24.4802 
-197.664 470.661 24.4778 -197.676 470.66 24.479 -197.676 470.66 24.479 
-197.678 470.66 24.4792 -197.676 470.66 24.479 -197.673 470.66 24.4787 
-197.536 470.519 23.4464 -197.544 470.522 23.4572 -197.543 470.522 23.4561 
-197.548 470.524 23.4639 -197.563 470.53 23.4863 -197.547 470.523 23.4622 
-197.544 470.522 23.4586 -197.55 470.524 23.4664 -197.546 470.523 23.4611 
-197.55 470.524 23.4672 -197.553 470.526 23.4716 -197.55 470.524 23.4666 
-197.361 470.233 25.2085 -197.361 470.233 25.2085 -197.361 470.233 25.2085 
-197.361 470.233 25.2085 -197.361 470.233 25.2085 -197.361 470.233 25.2085 
-197.361 470.233 25.2085 -197.361 470.233 25.2085 -210.062 476.281 20.4171 
-210.058 476.285 20.3977 -210.067 476.277 20.4364 -210.07 476.246 20.3921 
-210.463 476.292 20.698 -210.463 476.292 20.698 -210.463 476.292 20.698 
-210.463 476.292 20.698 -210.463 476.292 20.698 -210.463 476.292 20.698 
-211.304 476.861 21.5156 -211.304 476.861 21.5156 -211.304 476.861 21.5156 
-211.304 476.861 21.5156 -211.305 476.86 21.5155 -211.304 476.86 21.5156 
-211.304 476.861 21.5156 -211.305 476.86 21.5155 -211.304 476.86 21.5155 
-211.305 476.86 21.5155 -211.305 476.86 21.5155 -211.305 476.86 21.5155 
-211.897 476.902 22.1438 -211.897 476.902 22.1438 -211.897 476.903 22.1438 
-211.897 476.902 22.1438 -211.897 476.902 22.1438 -211.897 476.902 22.1438 
-211.897 476.902 22.1438 -211.897 476.902 22.1438 -211.738 476.849 21.8674 
-211.737 476.848 21.8665 -211.739 476.849 21.8695 -211.745 476.85 21.8777 
-211.737 476.848 21.8658 -211.739 476.849 21.869 -211.741 476.849 21.8716 
-211.739 476.849 21.8689 -211.739 476.849 21.8688 -211.742 476.85 21.8742 
-211.75 476.851 21.8859 -211.761 476.854 21.9052 -211.754 476.852 21.8901 
-211.743 476.85 21.8751 -211.744 476.85 21.8764 -211.741 476.849 21.8714 
-211.746 476.85 21.8787 -211.765 476.855 21.9111 -211.759 476.853 21.8975 
-211.751 476.851 21.8864 -211.784 476.863 21.9558 -211.774 476.855 21.9172 
-211.759 476.852 21.8957 -211.751 476.851 21.8848 -211.773 476.855 21.9159 
-211.758 476.852 21.8948 -211.818 476.856 21.9451 -211.82 476.871 21.9943 
-211.83 476.867 21.9949 -211.839 476.868 22.0027 -211.853 476.843 21.9729 
-211.831 476.901 22.0731 -211.871 476.867 22.0282 -211.28 476.298 21.0983 
-211.28 476.298 21.0983 -211.28 476.298 21.0983 -212.825 476.398 22.004 
-212.825 476.399 22.004 -212.825 476.399 22.004 -212.825 476.398 22.004 
-214.89 472.899 24.4797 -214.912 472.881 24.5135 -214.901 472.89 24.4966 
-214.901 472.89 24.4966 -214.697 471.859 24.0338 -214.697 471.859 24.0338 
-214.697 471.859 24.0338 -214.839 471.373 24.3218 -214.839 471.373 24.3218 
-214.839 471.373 24.3218 -214.839 471.373 24.3218 -215.153 470.457 24.4676 
-215.153 470.457 24.4676 -215.153 470.457 24.4676 -218.51 464.624 25.1331 
-218.51 464.624 25.1331 -218.51 464.624 25.1331 -210.336 455.024 22.5337 
-210.336 455.024 22.5337 -210.336 455.024 22.5337 -210.336 455.024 22.5337 
-210.336 455.024 22.5337 -210.336 455.024 22.5337 -210.336 455.023 22.5337 
-210.336 455.023 22.5337 -210.336 455.024 22.5337 -210.336 455.023 22.5337 
-210.616 454.855 22.5997 -210.616 454.855 22.5997 -210.616 454.855 22.5997 
-210.616 454.855 22.5997 -210.617 454.855 22.5997 -211.568 454.569 22.5808 
-211.568 454.569 22.5808 -211.568 454.569 22.5808 -211.568 454.569 22.5808 
-211.568 454.569 22.5808 -212.532 454.207 22.7779 -212.532 454.206 22.7779 
-212.532 454.207 22.7779 -212.532 454.207 22.7779 -212.532 454.206 22.7779 
-212.532 454.206 22.7779 -221.677 459.619 26.099 -221.677 459.619 26.099 
-221.677 459.619 26.099 -221.677 459.619 26.099 -221.782 459.463 25.7685 
-221.782 459.463 25.7685 -221.782 459.463 25.7685 -221.782 459.463 25.7685 
-215.552 454.74 29.9409 -215.552 454.74 29.9409 -215.552 454.74 29.9409 
-216.021 452.861 30.0428 -216.021 452.861 30.0428 -216.021 452.861 30.0428 
-216.021 452.86 30.0428 -216.021 452.86 30.0428 -216.387 451.596 30.1762 
-216.386 451.596 30.1762 -216.386 451.596 30.1762 -216.387 451.596 30.1762 
-216.387 451.596 30.1762 -216.387 451.596 30.1762 -216.386 451.596 30.1762 
-216.386 451.596 30.1762 -216.387 451.596 30.1762 -216.387 451.596 30.1762 
-216.387 451.596 30.1762 -216.19 450.886 31.8778 -216.19 450.886 31.8778 
-216.19 450.886 31.8778 -216.42 450.945 30.4326 -216.42 450.945 30.4326 
-216.42 450.945 30.4326 -216.42 450.945 30.4326 -216.42 450.945 30.4326 
-216.42 450.945 30.4326 -216.42 450.945 30.4326 -224.922 454.801 26.9916 
-224.922 454.801 26.9916 -224.922 454.801 26.9916 -224.922 454.801 26.9916 
-224.922 454.801 26.9916 -224.922 454.801 26.9916 -224.922 454.801 26.9916 
-224.922 454.801 26.9916 -224.922 454.801 26.9916 -224.922 454.801 26.9916 
-224.922 454.801 26.9916 -225.653 453.857 26.9283 -225.653 453.857 26.9283 
-225.653 453.857 26.9283 -226.491 452.959 27.7362 -226.491 452.959 27.7362 
-226.491 452.959 27.7363 -226.491 452.959 27.7362 -226.491 452.959 27.7362 
-226.491 452.959 27.7362 -226.491 452.959 27.7362 -226.491 452.958 27.7361 
-226.491 452.958 27.7361 -226.491 452.959 27.7361 -226.491 452.958 27.7361 
-226.491 452.959 27.7362 -226.491 452.958 27.7361 -226.491 452.958 27.7361 
-226.764 452.653 27.6711 -226.764 452.653 27.6711 -226.764 452.653 27.6711 
-227.13 452.514 28.7529 -227.124 452.525 28.7287 -227.118 452.535 28.7045 
-227.124 452.525 28.7287 -229.393 451.168 28.7279 -229.393 451.168 28.7279 
-229.393 451.168 28.7279 -229.4 451.19 28.8804 -229.4 451.19 28.8804 
-229.4 451.19 28.8804 -227.462 448.55 22.1441 -227.462 448.55 22.1441 
-227.462 448.55 22.1441 -227.462 448.55 22.1441 -227.462 448.55 22.1441 
-227.715 448.467 21.9651 -227.717 448.469 21.9646 -227.715 448.467 21.9651 
-227.723 448.473 21.9631 -227.714 448.466 21.9656 -227.708 448.461 21.9669 
-227.715 448.467 21.9651 -227.717 448.468 21.9647 -227.719 448.47 21.9642 
-227.717 448.468 21.9647 -230.249 449.717 28.1309 -230.247 449.716 28.1275 
-230.247 449.716 28.1252 -230.248 449.718 28.1362 -230.249 449.714 28.1252 
-230.252 449.721 28.1444 -230.255 449.714 28.1361 -230.246 449.716 28.1239 
-230.248 449.713 28.1244 -230.248 449.712 28.1343 -230.249 449.72 28.1497 
-230.255 449.706 28.1246 -230.251 449.708 28.1218 -230.263 449.734 28.1736 
[...]
POINT_DATA 19684
SCALARS scalars float
LOOKUP_TABLE default
-38.7935 -38.7934 -38.7934 -38.7934 -38.7934 -38.7933 -38.7934 -38.7933 -38.7744 
-38.7748 -38.7747 -38.7746 -38.7743 -38.7739 -38.7744 -38.7738 -38.775 -38.7749 
-38.7749 -38.7742 -38.7748 -38.7735 -38.7737 -38.7734 -38.7735 -38.7735 -37.4864 
-37.4863 -37.4864 -37.4864 -37.4864 -37.4864 -37.4863 -37.4863 -38.022 -38.022 
-38.0219 -37.5727 -37.5728 -37.5727 -37.5726 -37.5726 -37.5726 -37.5726 -37.5725 
-37.3712 -37.3711 -37.3712 -37.3712 -37.3711 -37.3712 -37.3709 -37.3709 -37.3712 
-37.3709 -37.371 -37.3709 -37.371 -37.3773 -37.3774 -37.3773 -37.443 -37.443 
-37.4431 -37.4429 -37.4428 -37.443 -37.443 -37.4428 -37.4427 -37.4428 -37.4427 
-37.4427 -36.7311 -36.7312 -36.7312 -36.7311 -36.7312 -36.7876 -36.7876 -36.7876 
-36.5338 -36.5339 -36.5338 -36.5338 -35.0831 -35.0908 -35.0496 -35.0695 -35.0729 
-35.0706 -35.0696 -35.0728 -35.07 -35.0649 -35.0628 -35.0709 -35.0709 -35.0687 
-35.0667 -34.8228 -34.8228 -34.8227 -34.8226 -34.8226 -34.8226 -34.7289 -34.729 
-34.7289 -34.7289 -34.7288 -34.7288 -34.729 -34.729 -34.7289 -34.7289 -34.7287 
-34.7286 -34.7286 -34.7289 -34.7287 -34.7288 -34.7286 -34.7285 -34.7286 -34.7285 
-34.9515 -34.9576 -34.9545 -34.9546 -35.0308 -35.0308 -35.0308 -35.0308 -35.0307 
-35.0307 -35.0308 -35.0307 -35.0307 -34.7196 -34.7196 -34.7196 -34.7196 -34.7196 
-34.7195 -34.7195 -34.781 -34.7996 -34.7903 -34.7901 -34.7882 -34.7901 -34.7919 
-34.8225 -34.8184 -34.8187 -34.816 -34.8082 -34.8165 -34.8178 -34.815 -34.8169 
-34.8147 -34.8131 -34.8149 -34.7577 -34.7576 -34.7576 -34.7576 -34.7577 -34.7576 
-34.7576 -34.7576 -31.8679 -31.8754 -31.8601 -31.8367 -31.6696 -31.6696 -31.6695 
-31.6695 -31.6695 -31.6694 -31.7479 -31.7479 -31.7478 -31.7479 -31.7478 -31.7478 
-31.7479 -31.7476 -31.7477 -31.7476 -31.7476 -31.7475 -31.5014 -31.5014 -31.5014 
-31.5013 -31.5013 -31.5012 -31.5013 -31.5012 -31.5348 -31.5349 -31.5344 -31.5327 
-31.535 -31.5344 -31.5339 -31.5342 -31.5343 -31.5335 -31.5311 -31.5279 -31.5297 
-31.5329 -31.5325 -31.5336 -31.5319 -31.5268 -31.5281 -31.5303 -31.5233 -31.5228 
-31.5279 -31.5305 -31.5231 -31.5282 -31.504 -31.5132 -31.5059 -31.5024 -31.4767 
-31.5304 -31.4878 -31.2872 -31.2871 -31.2872 -30.6967 -30.6968 -30.6968 -30.6967 
-26.5961 -26.5721 -26.5842 -26.5841 -25.6951 -25.695 -25.6951 -25.1884 -25.1884 
-25.1885 -25.1884 -24.2204 -24.2204 -24.2204 -17.603 -17.6031 -17.6031 -15.5248 
-15.5247 -15.5248 -15.5247 -15.5247 -15.5247 -15.5245 -15.5245 -15.5246 -15.5245 
-15.1924 -15.1924 -15.1924 -15.1924 -15.1923 -14.2306 -14.2306 -14.2305 -14.2305 
-14.2305 -13.1933 -13.1932 -13.1933 -13.1933 -13.1932 -13.1932 -12.0415 -12.0415 
-12.0415 -12.0415 -11.8281 -11.8281 -11.828 -11.828 -12.0839 -12.084 -12.084 
-10.8103 -10.8103 -10.8103 -10.8102 -10.8103 -10.0697 -10.0698 -10.0698 -10.0697 
-10.0697 -10.0697 -10.0698 -10.0698 -10.0697 -10.0697 -10.0697 -10.6797 -10.6796 
-10.6796 -9.95846 -9.95846 -9.95845 -9.95842 -9.95839 -9.95838 -9.95838 -7.37878 
-7.3787 -7.37871 -7.37871 -7.37873 -7.37852 -7.37855 -7.37855 -7.37849 -7.37844 
-7.37847 -6.62199 -6.62203 -6.62199 -6.4847 -6.48469 -6.48472 -6.48456 -6.48465 
-6.48458 -6.48458 -6.48436 -6.48441 -6.48443 -6.48441 -6.48451 -6.48431 -6.48432 
-6.32961 -6.32956 -6.32962 -6.96815 -6.98425 -6.97401 -6.98416 -5.76952 -5.76952 
-5.76947 -5.74025 -5.7402 -5.7402 -0.929285 -0.929302 -0.92928 -0.929279 -0.929271 
-0.895543 -0.896885 -0.895572 -0.90079 -0.894207 -0.890084 -0.895537 -0.89615 -0.897682 
-0.896157 -4.68536 -4.68627 -4.68745 -4.68394 -4.68428 -4.68251 -4.6784 -4.68726 
-4.68437 -4.67944 -4.68029 -4.67665 -4.68021 -4.68009 -4.67094 -4.66263 -4.67935 
-4.67232 -4.67014 -4.67165 -4.67659 -4.65841 -4.62922 -4.65019 -4.65726 -4.65242 
-4.54531 -4.54532 -4.54523 -4.54528 -4.54521 -4.5452 -0.845607 -0.851682 -0.857776 
-0.881728 -0.869722 -0.867315 -0.872103 -4.51283 -4.449 -4.48079 -4.48092 -0.858156 
-0.858151 -0.858171 -0.858119 -1.46768 -1.46771 -1.46768 -1.46764 -1.46761 -1.46764 
-1.53746 -1.53746 -1.53752 -1.53746 -3.55514 -3.55514 -3.55508 -1.41961 -1.4196 
-1.41963 -1.8823 -1.88229 -1.8823 -1.88224 -1.88221 -5.54804 -5.54811 -5.54806 
-5.54802 -5.54802 -5.54802 -5.54808 -5.54814 -5.54816 -5.5481 -5.7318 -5.73173 
-5.73175 -5.73181 -5.73181 -2.98484 -2.98486 -2.98481 -1.32564 -1.32555 -1.32562 
-1.32559 -1.32554 -1.32552 -2.4881 -2.48351 -2.48282 -2.49811 -2.46534 -2.4796 
-2.59388 -2.59387 -2.5939 -2.59388 -3.55271e-15 0 -39.1367 -39.1367 0 
-39.1366 0 -38.3615 0 0 -38.3614 -38.3614 -3.55271e-15 -37.5523 
-3.55271e-15 -37.5523 3.55271e-15 0 -35.3393 -35.3438 0 -35.3393 -35.3271 
-35.3169 -35.3226 -35.324 0 0 -35.0026 1.77636e-15 0 -22.7734 
-22.7734 0 0 -21.215 -21.215 0 -12.2444 8.88178e-16 -8.88178e-16 
-12.2441 -12.2439 -12.2425 0 0 -12.2445 -12.2426 -12.2439 -12.2424 
-8.88178e-16 -9.67056 -8.88178e-16 -9.67056 8.88178e-16 8.88178e-16 -10.9658 -10.9658 -6.58618 
-6.58627 -6.58623 0 -4.44089e-16 -6.58606 0 -8.88178e-16 3.46945e-18 0 
-0.0388694 6.93889e-18 0 -0.0503284 -0.0704582 -0.112954 0 -6.93889e-18 0 
-0.154299 -0.0596705 -0.0448877 -0.125711 -0.146983 -0.199697 -3.46945e-18 -3.46945e-18 -0.0747393 
-0.226515 -0.190225 3.46945e-18 0 -0.0265713 -0.146509 -0.224779 -0.289127 -3.46945e-18 
-3.46945e-18 -0.0632899 -0.298364 -0.139104 -0.220762 0 0 3.46945e-18 -0.0795355 
-0.243458 -0.288341 -0.352148 -3.46945e-18 0 -0.0787589 -0.0258029 -0.386476 -0.285108 
-0.0909536 -0.187052 -0.14167 6.93889e-18 3.46945e-18 -0.0346652 -0.0842393 -0.183267 -0.298756 
-0.32949 -0.361701 -0.42277 0 0 -0.0241809 -0.430206 -0.150946 -0.251624 
-0.355401 0 -0.0238129 -0.10149 -0.178686 -0.274291 -0.417028 -0.443668 -0.560198 
0 0 -0.0696081 1.73472e-18 -0.461794 -0.173264 -0.293878 -0.407677 0 
0 -0.0195221 -0.114718 -0.200764 -0.329786 -0.418784 -0.535099 -0.634438 -0.536077 
-6.93889e-18 -0.0434732 -0.281301 -0.190977 -0.101268 -0.509284 -0.335879 -0.473221 0 
0 -6.93889e-18 -0.0599716 -0.0939543 -0.194167 -0.295997 -0.318443 -0.423161 -0.551334 
-0.615663 3.46945e-18 -3.46945e-18 -0.0467256 1.73472e-18 -0.256862 -0.0540079 -0.114909 -0.385971 
-0.557505 0 -3.46945e-18 0 -0.0286689 -0.153504 -0.245667 -0.324098 -0.354633 
-0.562064 0 -0.24115 -1.73472e-18 -3.46945e-18 -1.73472e-18 1.73472e-18 -0.0220567 -0.0226592 
-0.424541 -0.601137 -3.46945e-18 0 -3.46945e-18 -0.0948033 0 -6.93889e-18 -0.202801 
-0.277359 -0.25968 -0.359875 -0.278277 -0.477465 -0.622823 -0.297583 -0.166491 0 
0 0 -3.46945e-18 3.46945e-18 -0.0770431 0 0 -0.444443 -0.600406 
0 -0.0238629 -0.186049 -0.0943628 -0.23309 -0.268792 -0.358933 -0.502022 -0.66856 
-0.307594 -0.193563 0 -0.107703 -0.00824475 -0.39819 -0.475213 -0.639718 -0.567764 
0 0 3.46945e-18 -0.0382728 -0.142619 -0.167327 -0.231434 -0.334506 -0.458332 
-0.633653 -0.671411 -0.352233 -0.205663 -0.264563 8.67362e-19 -0.014469 -0.15947 0 
0 -0.413787 -0.431392 -0.648397 -0.518332 0 -6.93889e-18 -1.73472e-18 1.73472e-18 
-0.103432 -0.175694 -0.312952 -0.409718 -0.602192 -0.730903 -0.303296 0 -0.0751195 
0 -0.0189574 0 -0.116729 -0.206869 -0.400001 -0.62912 -0.538458 -0.4322 
-1.73472e-18 -0.0364555 -0.0562103 -0.218301 -0.333293 -0.463863 -0.531708 -0.723253 -0.66873 
-0.323621 0 -0.131888 0 -0.105406 8.67362e-19 -0.226038 -0.557177 -0.393632 
0 0 3.46945e-18 -3.46945e-18 -6.93889e-18 -0.0929673 -0.186741 -0.257612 -0.379288 
-0.552547 -0.643807 -0.814087 -0.767383 -0.667767 -0.845055 -0.17835 -5.20417e-18 -0.119665 
-0.278067 -0.439002 -0.534999 -0.636299 -6.93889e-18 0 -0.0292642 -0.157871 -0.186035 
-0.248687 -0.282807 -0.398654 -0.505418 -0.647056 -0.718427 -0.828772 -0.752637 -0.862124 
-1.02385 -0.855465 5.20417e-18 -0.252386 0 -0.180397 -0.109327 -0.0481449 -0.381281 
-0.51685 -0.691918 -0.635107 0 0 -0.0144436 -0.102406 -0.214931 -0.327459 
-0.439962 -0.483528 -0.602916 -0.796263 -0.740551 -0.75319 -0.953945 -1.09966 -0.888375 
-1.04338 -0.822158 -0.322137 -0.255268 1.73472e-18 -0.180192 -0.0497498 -0.0985997 -1.73472e-18 
-0.39227 -0.50023 -0.733039 -0.647564 1.73472e-18 0 0 -0.0797545 -0.127673 
-0.228611 -0.319155 -0.418978 -0.569412 -0.69537 -0.795948 -0.882021 -0.799936 -1.09273 
-1.20714 -0.813364 -0.890636 -1.16813 -1.01163 -0.341193 -0.271228 -0.184208 -1.73472e-18 
-0.0145773 -0.0736211 -0.429755 -0.536002 -0.769235 -0.712636 -0.679997 -1.73472e-18 -0.0117023 
-0.148113 -0.162064 -0.224256 -0.270153 -0.31019 -0.326174 -0.419562 -0.491625 -0.510825 
-0.572654 -0.656084 -0.701631 -0.827508 -0.93872 -0.91562 -1.02301 -1.17679 -1.31301 
-1.28712 -0.846806 -1.16484 -1.28452 -0.81966 -1.15866 -1.05816 -0.393599 -0.291542 
-0.166213 -0.229721 0 -1.73472e-18 0 -3.46945e-18 -0.0183433 -0.109163 -0.613762 
-0.517816 -0.762772 -0.690585 1.73472e-18 -1.73472e-18 0 -0.0045367 -0.0942472 -0.226372 
-0.28264 -0.331671 -0.419136 -0.550568 -0.676743 -0.774793 -0.933775 -1.00944 -1.14593 
-1.24786 -1.33556 -1.3151 -1.34191 -1.42801 -1.36194 -1.21855 -1.42029 -1.27645 
-0.657137 -0.783402 -0.941938 -1.24829 -1.20121 -1.06863 -0.397529 -0.289932 -0.188013 
-0.225101 0 0 -0.0370856 -0.190732 -0.531239 0 -6.93889e-18 -0.0502292 
-0.143623 -0.230384 -0.32984 -0.366425 -0.492977 -0.510539 -0.585729 -0.757098 -0.770442 
-0.885948 -1.05889 -1.07406 -1.23825 -1.35947 -1.5072 -1.42348 -1.61288 -1.35022 
-1.43612 -1.5578 -0.667417 -0.775487 -0.859931 -0.949864 -1.08394 -1.38522 -1.33611 
-1.3853 -1.25816 -0.348089 -0.43291 -0.257663 -3.46945e-18 0 -3.46945e-18 -0.0660437 
-0.126202 -0.216985 -0.313149 -0.300419 -0.486901 -0.578913 0 -0.0224842 -0.118686 
-0.196158 -0.36827 -0.45769 -0.628417 -0.812453 -0.895079 -1.05084 -1.20347 -1.36818 
-1.48675 -1.64029 -1.73101 -1.7335 -1.48083 -1.67944 -1.56121 -0.691853 -0.855525 
-0.80251 -1.04845 -0.892419 -0.978024 -1.13686 -1.47676 -1.58919 -1.39315 -1.46329 
-1.20068 -1.37446 -1.31045 -0.407771 -1.73472e-18 -0.0912584 3.46945e-18 -0.406243 -0.333334 
-0.169087 -0.283391 -0.382291 -0.490005 -0.615774 3.46945e-18 6.93889e-18 -0.0722373 -0.136683 
-0.261126 -0.387581 -0.538807 -0.559319 -0.739139 -0.891654 -0.967047 -1.15057 -1.26431 
-1.32479 -1.51924 -1.45606 -1.6626 -1.6742 -1.81913 -1.86559 -1.87166 -1.84799 
-1.62409 -1.77294 -0.717569 -0.811603 -0.878011 -1.0979 -1.07145 -0.906086 -0.985189 
-1.682 -1.49227 -1.74913 -1.78861 -1.67421 -1.15459 -1.25158 -1.42445 -1.35992 
0 -0.0577282 -0.562935 -0.545332 -0.428341 -0.200509 -0.358329 -0.657972 0 
-0.0203619 -0.0361672 -0.179727 -0.21321 -0.281628 -0.388903 -0.511162 -0.671166 -0.672146 
-0.626105 -0.797096 -0.931227 -1.00691 -1.09382 -1.26763 -1.4027 -1.40409 -1.48797 
-1.65386 -1.74586 -1.77295 -1.79215 -1.92532 -1.98584 -1.97822 -1.95102 -2.03156 
-1.92557 -1.92391 -0.728359 -0.788236 -0.861648 -1.06091 -1.15209 -0.921363 -0.97225 
-1.54146 -1.94814 -1.86303 -1.64764 -1.81609 -1.24521 -1.34064 -1.47502 -3.46945e-18 
6.93889e-18 -0.00503865 -0.0903512 -0.666327 -0.568722 -0.640644 -0.509706 -0.162789 -0.301541 
-0.44183 0 0 0 -3.46945e-18 -6.93889e-18 -0.0480577 -0.15309 -0.277435 
-0.406629 -0.491362 -0.614708 -0.769369 -0.82866 -0.961554 -1.04411 -1.17045 -1.33839 
-1.45821 -1.52281 -1.60049 -1.54945 -1.75621 -1.88227 -1.86054 -1.86613 -1.98022 
-2.08393 -2.1322 -2.13365 -2.18381 -2.06577 -2.12209 -2.04434 -0.878922 -0.827912 
-0.740812 -1.05379 -1.1277 -0.89841 -0.953626 -1.02129 -2.05085 -2.03032 -1.93132 
-1.64813 -1.73871 -2.02014 -1.84834 -1.16887 -1.21927 -1.37295 -1.33211 -1.4752 
0 0 -0.0377962 -0.681561 -0.608953 -0.566022 -0.60607 -0.130692 -0.235004 
-0.331709 -0.405216 -0.524146 1.73472e-18 1.73472e-18 -0.118565 -0.273267 -0.452935 -0.549001 
-0.653747 -0.775964 -0.923554 -1.12332 -1.0731 -1.27382 -1.36308 -1.46714 -1.58999 
-1.63036 -1.73819 -1.92361 -1.95132 -2.04789 -2.07655 -2.13154 -2.25174 -2.23393 
-2.33237 -2.28101 -2.29626 -2.2246 -2.30185 -2.18507 -0.801302 -0.856082 -0.777669 
-1.08301 -1.1266 -0.901372 -0.982694 -1.04029 -2.22459 -1.75368 -1.614 -2.23237 
-2.07253 -1.90777 -1.12412 -1.15402 -1.2189 -1.29421 -1.39089 -1.50725 0 
3.46945e-18 -0.0339873 -0.75524 -0.678845 -0.667903 -0.653496 -0.129158 -0.205363 -0.293258 
-0.374951 -0.390271 -0.484568 -0.604934 3.46945e-18 -0.124994 -0.207103 -0.304063 -0.355004 
-0.433815 -0.52678 -0.488926 -0.554051 -0.695833 -0.810798 -1.0205 -1.16378 -1.24582 
-1.29713 -1.44936 -1.56922 -1.70873 -1.77721 -1.81551 -1.893 -2.14835 -1.9615 
-2.18415 -2.23966 -2.42145 -2.39148 -2.33665 -2.48205 -2.47857 -2.38804 -2.37599 
-2.38908 -2.43898 -2.33232 -0.827955 -0.863038 -0.921866 -1.07363 -1.00316 -2.41571 
-2.36405 -1.69875 -1.81982 -1.61148 -2.43534 -2.28915 -2.03275 -2.19903 -1.93323 
-1.13294 -1.31235 -1.2409 -1.17971 -1.43032 -1.53056 3.46945e-18 -3.46945e-18 -0.00637736 
-0.0987977 -0.81047 -0.75282 -0.752754 -0.751682 -0.714297 -0.186764 -0.269512 -0.338389 
-0.504813 -0.402939 -0.70573 -0.659008 6.93889e-18 1.73472e-18 -0.0922883 -0.107814 -0.177056 
-0.23866 -0.348845 -0.430774 -0.517825 -0.661484 -0.630074 -0.806281 -0.957095 -1.13264 
-1.20577 -1.38738 -1.50688 -1.69866 -1.62727 -1.76152 -1.7896 -2.2731 -2.04048 
-2.16416 -1.90168 -1.77156 -2.32075 -2.3982 -2.5024 -2.56696 -2.42376 -2.59163 
-2.50429 -2.57784 -2.51119 -2.50914 -2.45064 -2.53427 -0.849972 -0.927015 -1.07628 
-0.929547 -1.09264 -1.02164 -2.60806 -2.51541 -1.7009 -1.75515 -1.97842 -1.84675 
-1.62432 -2.60756 -2.58909 -2.4578 -2.34846 -2.11761 -2.22031 -2.3245 -1.25205 
-1.3634 -1.14076 -1.48505 0 -8.67362e-19 -0.00430672 -0.0811725 -0.170521 -0.84217 
-0.794767 -0.776331 -0.259141 -0.342552 -0.444249 -0.564421 -0.775314 -0.780883 -0.688671 
-1.73472e-18 1.73472e-18 -0.0467645 -0.0461455 -0.0804509 -0.130278 -0.163311 -0.213686 -0.306341 
-0.391137 -0.407891 -0.423878 -0.496436 -0.518478 -0.59702 -0.643657 -0.734846 -0.9332 
-0.924838 -1.04313 -1.09584 -1.26534 -1.39457 -1.53712 -1.64018 -1.63174 -2.26961 
-1.97086 -2.27799 -2.11099 -1.7587 -1.58095 -2.72506 -2.30203 -2.31065 -2.43115 
-2.60038 -2.60949 -2.74932 -2.58722 -0.93327 -0.985012 -1.06834 -2.69846 -2.81225 
-2.66373 -2.82192 -1.70909 -1.83787 -1.94822 -2.16353 -2.13213 -1.58865 -2.76515 
-2.67665 -2.7436 -2.61492 -2.47643 -2.30075 -2.40737 -1.2211 -1.30899 -1.39677 
-1.15279 -1.47312 0 -4.33681e-19 -0.0590164 -0.162945 -0.246899 -0.888814 -0.349273 
-0.445975 -0.51007 -0.586685 -0.840931 -0.802996 -0.921115 -0.671481 -0.766747 0 
0 -3.46945e-18 -3.46945e-18 -6.93889e-18 6.93889e-18 -6.93889e-18 -0.0777669 -0.101755 -0.179798 
-0.307601 -0.400109 -0.372358 -0.442068 -0.568021 -0.580703 -0.615414 -0.916893 -0.779577 
-1.04956 -1.22257 -1.31445 -1.45216 -1.51664 -1.48292 -1.81378 -2.00027 -2.13625 
-1.65247 -1.61394 -1.42873 -1.40032 -1.48103 -2.72959 -2.15674 -2.17996 -2.28705 
-2.4522 -2.7414 -2.6207 -2.82561 -1.01273 -1.09643 -2.78734 -2.87911 -2.908 
-2.9194 -1.79923 -1.66043 -1.88028 -2.0797 -2.24008 -2.2754 -2.25995 -2.92383 
-2.75247 -2.8854 -2.67663 -2.51258 -2.33113 -2.42435 -1.20623 -1.26549 -1.35729 
-1.18323 -1.34273 -1.41516 -1.56024 0 -0.0751356 -0.300835 -0.232277 -1.02307 
-0.420618 -0.509944 -0.579516 -0.859123 -1.08549 -1.05906 -0.976151 -0.613268 -0.748382 
-0.723612 -0.833394 6.93889e-18 0 1.38778e-17 6.93889e-18 -6.93889e-18 6.93889e-18 0 
-0.119169 -0.127943 -0.172974 -0.240774 -0.294393 -0.25969 -0.325888 -0.384941 -0.478921 
-0.494656 -0.476937 -0.527906 -0.561483 -0.724389 -0.879388 -1.16156 -0.948753 -1.26855 
-1.36564 -1.36762 -1.96512 -1.6514 -1.73418 -1.45133 -1.51623 -1.3074 -1.24472 
-1.35405 -2.04295 -2.09874 -2.2194 -2.31447 -2.45847 -2.69668 -2.60896 -1.13795 
-2.76648 -2.81822 -2.71824 -2.83664 -2.9953 -1.76955 -1.74096 -1.86862 -1.96985 
-2.21088 -2.05525 -2.20253 -2.41784 -2.28175 -2.4358 -3.04213 -3.05277 -2.84405 
-2.99666 -2.58148 -2.81376 -2.79133 -2.71296 -1.23968 -1.30975 -1.3973 -1.48597 
-1.69001 -1.64455 -1.73472e-18 -3.46945e-18 -0.00821588 -0.158204 -0.413779 -0.318649 -0.517501 
-1.17397 -1.2008 -1.14427 -0.934679 -1.10607 -0.577091 -0.676733 -0.859048 -0.836031 
0 0 -0.116229 -0.11729 -0.201398 -0.160434 -0.218072 -0.279404 -0.396074 
-0.410268 -0.354611 -0.450297 -0.407415 -0.665536 -0.501172 -0.807182 -1.07183 -0.791375 
-0.82905 -0.899134 -1.20994 -1.24879 -1.87033 -1.57491 -1.56542 -1.69644 -1.33816 
-1.39834 -1.40259 -1.14936 -1.05109 -1.20318 -1.98303 -1.91595 -1.98306 -2.17387 
-2.29322 -2.46131 -2.69795 -2.64962 -2.91841 -2.83101 -3.01015 -1.76777 -1.79816 
-1.81326 -1.93514 -2.23188 -2.20927 -2.03953 -2.15694 -2.35396 -2.63096 -2.60004 
-2.52164 -3.01392 -3.13091 -2.94108 -3.0735 -2.70555 -2.81158 -1.25936 -1.31592 
-1.29748 -1.40272 -1.43247 -1.74268 -1.5622 -1.74063 -1.80644 0 -8.67362e-19 
0 0 -0.0585957 -0.191973 -0.454673 -0.53469 -0.461628 -0.385912 -1.26732 
-1.01563 -1.18244 -1.25258 -0.565823 -0.717212 -0.8021 -0.904323 -1.01343 0 
0 6.93889e-18 0 -0.0975433 -0.124539 -0.173555 -0.171896 -0.240019 -0.323336 
-0.251575 -0.253921 -0.294851 -0.36193 -0.297096 -0.282771 -0.376556 -0.687158 -0.532574 
-0.437474 -0.894657 -1.08865 -0.841442 -0.795622 -1.75105 -1.42277 -1.5582 -1.27894 
-1.19998 -1.26251 -0.9541 -0.888782 -0.893224 -1.02565 -1.12717 -1.80646 -2.13155 
-1.81676 -1.90575 -2.01325 -2.21882 -2.31039 -2.43499 -2.7558 -2.48387 -2.67621 
-2.91859 -2.8718 -2.86493 -1.90524 -2.28175 -1.9383 -2.09675 -2.20479 -2.49135 
-2.42191 -2.79405 -2.75584 -2.77456 -2.66238 -2.59075 -3.04468 -2.98788 -3.17221 
-3.0086 -3.09552 -2.92668 -3.04787 -1.3894 -1.50921 -1.68781 -1.82386 -3.46945e-18 
3.46945e-18 -0.0115465 -0.112948 -0.179669 -0.286407 -0.494555 -0.579663 -0.43013 -0.563848 
-1.15884 -1.33476 -1.32126 -1.30452 -0.706302 -0.874915 -0.86435 -0.987232 0 
0 -0.0819237 -0.0886094 -0.0877523 -0.171506 -0.162383 -0.203823 -0.227621 -0.191095 
-0.194547 -0.278827 -0.338348 -0.685173 -0.62736 -0.549568 -0.434961 -0.43349 -0.727265 
-0.771518 -0.845556 -1.65534 -1.32332 -1.49124 -1.03798 -1.08882 -1.13657 -0.762368 
-0.784281 -0.74713 -0.864964 -1.01435 -1.71352 -2.10407 -1.67784 -1.8109 -1.90193 
-2.0501 -2.17929 -2.24987 -2.31513 -2.38726 -2.31248 -2.44048 -2.86185 -2.67502 
-2.35097 -2.09332 -1.93006 -2.03456 -2.21508 -2.30085 -2.57126 -2.48791 -2.9197 
-2.9115 -2.80211 -2.70949 -3.16755 -3.14933 -3.29231 -2.964 -2.99799 -3.05352 
-1.38591 -1.47083 -1.60152 -1.67808 -1.83558 0 1.73472e-18 -0.0194736 -0.151027 
-0.262061 -0.417534 -0.548314 -0.572812 -0.651463 -0.730295 -0.999918 -1.11118 -1.22867 
-1.33825 -1.30851 -1.43697 -0.817138 -0.944351 -1.03009 0 0 6.93889e-18 
0 3.46945e-18 6.93889e-18 0 -0.00996091 -0.0651917 -0.115263 -0.0912117 -0.0886142 
-0.12091 -0.110507 -0.16439 -0.106864 -0.126589 -0.199114 -0.220687 -0.317595 -0.587758 
-0.425862 -0.629393 -1.60806 -1.09264 -1.30231 -1.49993 -0.931879 -0.981393 -1.06977 
-0.599216 -0.632206 -0.594637 -0.71816 -0.667552 -0.75741 -1.75017 -1.54433 -1.87974 
-2.05164 -2.19181 -2.15945 -2.20524 -2.26511 -2.54701 -2.32609 -2.4684 -2.85263 
-2.59993 -2.74211 -2.41229 -2.18925 -2.03178 -2.30457 -2.32363 -2.6954 -2.60551 
-2.56951 -3.05591 -3.10024 -2.92157 -3.02224 -2.85816 -2.79311 -3.19003 -3.07794 
-3.18305 -3.3022 -3.31029 -2.86993 -2.95341 -1.59253 -1.77399 -1.95188 0 
0 -1.73472e-18 -0.0958065 -0.259098 -0.538613 -0.451026 -0.651632 -0.681322 -0.719016 
-0.818765 -0.858577 -1.15828 -1.35063 -1.30935 -1.4804 -0.995985 -1.12749 1.73472e-18 
-1.73472e-18 0 -0.0308825 -0.0545557 0 0 -6.93889e-18 0 0 
0 -0.0987547 -0.0943798 -0.102899 -0.14892 -0.131423 -0.195993 -0.292396 -0.471963 
-0.331051 -0.491822 -0.891385 -0.945912 -1.02895 -1.13594 -1.37646 -1.20004 -0.862543 
-0.779608 -0.485759 -0.462101 -0.426786 -0.519748 -0.558471 -0.645742 -1.68638 -1.44219 
-1.40618 -1.51922 -1.78251 -1.93633 -2.07105 -2.01407 -2.08434 -2.15606 -2.19256 
-2.20371 -2.37951 -2.5108 -2.65035 -2.79961 -2.38458 -2.4725 -2.21184 -2.30886 
-2.33208 -2.09371 -2.41016 -2.70515 -2.79034 -2.72412 -2.58746 -3.19671 -3.12483 
-3.12166 -3.19734 -3.01659 -3.11292 -2.91224 -3.07718 -3.17192 -3.34098 -3.43102 
-3.3171 -2.85746 -2.98979 -1.65358 -1.76452 -1.88016 -1.92858 -2.06933 -3.46945e-18 
-0.023128 -0.122007 -0.207125 -0.310034 -0.609738 -0.368537 -0.531526 -0.704966 -0.814877 