# vtk DataFile Version 4.2
3D Slicer output. SPACE=LPS
ASCII
DATASET POLYDATA
POINTS 5721 float
1.56539 -52.2625 -34.82 1.54357 -52.2625 -34.7568 1.54357 -52.4288 -34.82 
1.59001 -51.9625 -34.82 1.66583 -52.2625 -35.12 1.54357 -51.9625 -34.6978 
1.46093 -52.2625 -34.52 1.52239 -52.5625 -34.82 1.54357 -52.5625 -34.8853 
1.61378 -52.5625 -35.12 1.43423 -52.5625 -34.52 1.60693 -51.6625 -34.82 
1.71108 -51.9625 -35.12 1.69767 -52.5625 -35.42 1.77058 -52.2625 -35.42 
1.54357 -51.6625 -34.6699 1.47647 -51.9625 -34.52 1.36776 -52.2625 -34.22 
1.3736 -51.9625 -34.22 1.46811 -52.8625 -34.82 1.54357 -52.8625 -35.1199 
1.54357 -52.8625 -35.12 1.6163 -52.8625 -35.42 1.39752 -52.8625 -34.52 
1.34998 -52.5625 -34.22 1.61225 -51.3625 -34.82 1.54357 -51.3625 -34.6726 
1.74098 -51.6625 -35.12 1.84017 -51.9625 -35.42 1.84357 -51.6625 -35.339 
1.69565 -52.8625 -35.72 1.79039 -52.5625 -35.72 1.84357 -52.4007 -35.72 
1.84357 -52.2625 -35.6074 1.47926 -51.6625 -34.52 1.27292 -52.2625 -33.92 
1.26813 -51.9625 -33.92 1.24357 -51.7106 -33.92 1.3604 -51.6625 -34.22 
1.41178 -53.1625 -34.82 1.46172 -53.1625 -35.12 1.54357 -53.1078 -35.42 
1.54357 -53.1625 -35.4892 1.35601 -53.1625 -34.52 1.322 -52.8625 -34.22 
1.24179 -52.8625 -33.92 1.26344 -52.5625 -33.92 1.60234 -51.0625 -34.82 
1.54357 -51.0625 -34.7032 1.75622 -51.3625 -35.12 1.75909 -51.0625 -35.12 
1.47028 -51.3625 -34.52 1.44976 -51.0625 -34.52 1.84357 -51.3625 -35.2973 
1.98274 -51.9625 -35.72 1.88522 -51.6625 -35.42 1.9091 -51.3625 -35.42 
1.60368 -53.1625 -35.72 1.68067 -53.1625 -36.02 1.79622 -52.8625 -36.02 
1.84357 -52.7372 -36.02 1.84357 -52.5625 -35.8624 2.01973 -52.2625 -36.02 
1.8909 -52.2625 -35.72 1.24357 -52.2625 -33.8307 1.24357 -52.5625 -33.8499 
1.24357 -51.9625 -33.852 1.18754 -51.3625 -33.92 1.24357 -51.3625 -34.037 
1.11604 -51.6625 -33.62 1.33265 -51.3625 -34.22 1.34111 -53.4625 -34.82 
1.38557 -53.4625 -35.12 1.43 -53.4625 -35.42 1.52542 -53.1625 -35.42 
1.54357 -53.3266 -35.72 1.29431 -53.4625 -34.52 1.24357 -53.4069 -34.22 
1.24357 -53.4625 -34.2749 1.28647 -53.1625 -34.22 1.24357 -53.1625 -34.0569 
1.2115 -53.1625 -33.92 1.17293 -52.8625 -33.62 1.57313 -50.7625 -34.82 
1.54357 -50.7625 -34.7703 1.75999 -50.7625 -35.12 1.40418 -50.7625 -34.52 
1.84357 -51.0625 -35.2708 1.84357 -50.7625 -35.2511 1.29887 -51.0625 -34.22 
1.93093 -51.0625 -35.42 2.12522 -51.9625 -36.02 2.14357 -51.8897 -36.02 
2.14357 -51.6625 -35.9244 2.03855 -51.6625 -35.72 2.07487 -51.3625 -35.72 
1.54357 -53.4625 -35.9715 1.63278 -53.4625 -36.32 1.77384 -53.1625 -36.32 
1.84357 -53.0188 -36.32 1.84357 -52.8625 -36.1413 2.04183 -52.5625 -36.32 
1.90804 -52.5625 -36.02 2.14357 -52.3053 -36.32 2.14357 -52.2625 -36.2855 
1.18218 -52.5625 -33.62 1.17629 -52.2625 -33.62 1.15918 -51.9625 -33.62 
1.05905 -51.3625 -33.62 1.14771 -51.0625 -33.92 1.24357 -51.0625 -34.1106 
1.05122 -51.9625 -33.32 0.99549 -51.6625 -33.32 0.943569 -51.4236 -33.32 
1.24357 -53.758 -34.82 1.28061 -53.7625 -35.12 1.24357 -53.635 -34.52 
1.31665 -53.7625 -35.42 1.36426 -53.7625 -35.72 1.4882 -53.4625 -35.72 
1.17295 -53.4625 -33.92 1.16197 -53.7625 -34.22 1.15185 -53.1625 -33.62 
1.10891 -52.8625 -33.32 1.10434 -52.5625 -33.32 1.54357 -50.5007 -34.82 
1.84357 -50.4625 -35.2317 1.76591 -50.4625 -35.12 1.24357 -50.7424 -34.22 
1.34806 -50.4625 -34.52 1.24357 -50.4625 -34.3309 1.95177 -50.7625 -35.42 
1.97522 -50.4625 -35.42 2.10559 -51.0625 -35.72 2.27761 -51.9625 -36.32 
2.34953 -51.6625 -36.32 2.19574 -51.6625 -36.02 2.14357 -51.3625 -35.847 
2.24294 -51.3625 -36.02 2.14357 -51.0625 -35.7881 1.54357 -53.6508 -36.32 
1.42273 -53.7625 -36.02 1.73444 -53.4625 -36.62 1.84357 -53.1625 -36.499 
2.06041 -52.8625 -36.62 1.92048 -52.8625 -36.32 2.14357 -52.6763 -36.62 
2.14357 -52.5625 -36.5279 2.32244 -52.2625 -36.62 1.08497 -52.2625 -33.32 
1.00974 -51.0625 -33.62 0.930339 -51.3625 -33.32 0.943569 -51.0625 -33.4776 
1.0959 -50.7625 -33.92 0.943569 -52.0063 -33.02 0.943569 -51.6625 -33.2026 
0.787362 -51.3625 -33.02 1.13473 -54.0625 -34.82 1.24357 -53.8537 -35.12 
1.20389 -53.7625 -34.52 1.24357 -53.9356 -35.42 1.23111 -54.0625 -35.72 
1.24357 -54.0625 -35.7973 1.12499 -53.7625 -33.92 1.12964 -53.4625 -33.62 
1.08624 -54.0625 -34.22 1.11093 -54.0625 -34.52 1.1059 -53.1625 -33.32 
1.06108 -53.1625 -33.02 1.04778 -52.8625 -33.02 1.02918 -52.5625 -33.02 
1.53928 -50.1625 -34.82 1.84357 -50.1625 -35.2241 1.77031 -50.1625 -35.12 
1.18312 -50.4625 -34.22 1.32195 -50.1625 -34.52 1.24357 -50.1625 -34.3976 
1.13466 -50.1625 -34.22 2.13584 -50.7625 -35.72 2.14357 -50.6917 -35.72 
2.14357 -50.4625 -35.6804 2.14357 -50.1625 -35.6427 1.98946 -50.1625 -35.42 
2.42309 -51.9625 -36.62 2.44357 -51.8852 -36.62 2.44357 -51.6625 -36.5085 
2.44357 -51.3625 -36.3873 2.40741 -51.3625 -36.32 2.27968 -51.0625 -36.02 
2.44357 -51.1434 -36.32 2.32065 -50.7625 -36.02 1.4877 -53.7625 -36.32 
1.54357 -53.7625 -36.5282 1.27988 -54.0625 -36.02 1.33168 -54.0625 -36.32 
1.54357 -53.8082 -36.62 1.66947 -53.7625 -36.92 1.84357 -53.4625 -36.8946 
1.84357 -53.2568 -36.62 1.899 -53.1625 -36.62 2.04216 -53.1625 -36.92 
2.14357 -52.8625 -36.7985 2.34969 -52.5625 -36.92 2.19569 -52.5625 -36.62 
2.44357 -52.3405 -36.92 2.44357 -52.2625 -36.8599 0.990554 -52.2625 -33.02 
0.943569 -50.758 -33.62 0.866582 -51.0625 -33.32 0.762943 -50.7625 -33.32 
1.02869 -50.4625 -33.92 0.943569 -50.4625 -33.7764 0.862913 -51.6625 -33.02 
0.806222 -51.9625 -32.72 0.943569 -52.2625 -32.8792 0.694185 -51.0625 -33.02 
0.714903 -51.6625 -32.72 0.643569 -51.4399 -32.72 0.617955 -51.3625 -32.72 
0.643569 -51.0625 -32.9452 1.01113 -54.3625 -34.82 1.03485 -54.3625 -35.12 
1.16075 -54.0625 -35.12 1.18901 -54.0625 -35.42 1.08538 -54.3625 -35.72 
1.11536 -54.3625 -36.02 1.24357 -54.1313 -36.02 1.06652 -54.0625 -33.92 
1.09928 -53.7625 -33.62 1.10121 -53.4625 -33.32 0.991742 -54.3625 -34.22 
0.99908 -54.3625 -34.52 1.07268 -53.4625 -33.02 1.0369 -53.4625 -32.72 
1.0173 -53.1625 -32.72 0.990985 -52.8625 -32.72 0.943569 -52.5249 -32.72 
1.54357 -50.0061 -34.82 1.76792 -49.8625 -35.12 1.84357 -49.8625 -35.2298 
1.97929 -49.8625 -35.42 1.33136 -49.8625 -34.52 1.24357 -49.8625 -34.4039 
0.943569 -50.1214 -33.92 0.943569 -49.8625 -34.0042 1.10698 -49.8625 -34.22 
2.37031 -50.4625 -36.02 2.19861 -50.1625 -35.72 2.14357 -49.8625 -35.6473 
2.57113 -51.9625 -36.92 2.6551 -51.6625 -36.92 2.49931 -51.6625 -36.62 
2.56647 -51.3625 -36.62 2.44357 -51.0625 -36.2994 2.44357 -50.7625 -36.218 
2.63223 -51.0625 -36.62 2.44357 -50.4625 -36.1253 1.39038 -54.0625 -36.62 
1.24357 -54.2195 -36.32 1.54357 -53.9456 -36.92 1.78952 -53.7625 -37.22 
1.84357 -53.6816 -37.22 1.98774 -53.4625 -37.22 2.14357 -53.1625 -37.1559 
2.14357 -52.9737 -36.92 2.20314 -52.8625 -36.92 2.33392 -52.8625 -37.22 
2.44357 -52.5625 -37.1344 2.61279 -52.2625 -37.22 2.47373 -52.2625 -36.92 
0.84063 -50.4625 -33.62 0.643569 -50.9536 -33.02 0.643569 -50.7625 -33.1552 
0.643569 -50.5175 -33.32 0.727715 -50.1625 -33.62 0.887253 -52.2625 -32.72 
0.764799 -52.2625 -32.42 0.643569 -51.9207 -32.42 0.643569 -51.6625 -32.5891 
0.54337 -51.6625 -32.42 0.392538 -51.3625 -32.42 0.486198 -51.0625 -32.72 
0.343569 -51.2793 -32.42 0.943569 -54.5 -34.82 0.943569 -54.4851 -34.52 
1.0583 -54.3625 -35.42 0.943569 -54.5487 -35.12 0.915891 -54.6625 -35.72 
0.943569 -54.5868 -35.42 0.934631 -54.6625 -36.02 0.943569 -54.6625 -36.1583 
1.15513 -54.3625 -36.32 0.985375 -54.3625 -33.92 1.04858 -54.0625 -33.62 
1.07866 -53.7625 -33.32 0.943569 -54.4788 -33.92 0.943569 -54.4834 -34.22 
1.06126 -53.7625 -33.02 1.04281 -53.7625 -32.72 1.01352 -53.7625 -32.42 
0.996755 -53.4625 -32.42 0.971068 -53.1625 -32.42 0.943569 -52.9558 -32.42 
0.943569 -52.8625 -32.4879 0.85822 -52.5625 -32.42 1.54357 -49.8625 -34.8102 
1.76592 -49.5625 -35.12 1.54357 -49.5625 -34.7888 1.84357 -49.5625 -35.2348 
1.96701 -49.5625 -35.42 1.34596 -49.5625 -34.52 1.24357 -49.5625 -34.4028 
0.880285 -49.8625 -33.92 0.943569 -49.5625 -34.067 1.08587 -49.5625 -34.22 
2.44357 -50.1625 -36.0659 2.40908 -50.1625 -36.02 2.19953 -49.8625 -35.72 
2.14357 -49.5625 -35.6667 2.72907 -51.9625 -37.22 2.74357 -51.6625 -37.0825 
2.72529 -51.3625 -36.92 2.74357 -51.2816 -36.92 2.74357 -51.0625 -36.8251 
2.51072 -50.7625 -36.32 2.57218 -50.4625 -36.32 2.74357 -50.7625 -36.6967 
2.70056 -50.7625 -36.62 2.61277 -50.1625 -36.32 1.24357 -54.2955 -36.62 
1.24357 -54.3625 -36.89 1.46245 -54.0625 -36.92 1.54357 -54.0625 -37.1753 
1.84357 -53.7625 -37.3551 1.91191 -53.7625 -37.52 2.1127 -53.4625 -37.52 
2.14357 -53.4144 -37.52 2.14357 -53.2082 -37.22 2.29865 -53.1625 -37.52 
2.44357 -52.8625 -37.483 2.44357 -52.6375 -37.22 2.47955 -52.5625 -37.22 
2.61422 -52.5625 -37.52 2.74357 -52.3061 -37.52 2.74357 -52.2625 -37.4789 
0.617638 -50.4625 -33.32 0.643569 -50.1625 -33.517 0.548745 -50.7625 -33.02 
0.343569 -50.4625 -32.9886 0.643569 -49.9238 -33.62 0.744137 -52.5625 -32.12 
0.643569 -52.3269 -32.12 0.643569 -52.2625 -32.1731 0.4676 -51.9625 -32.12 
0.356975 -51.7575 -32.1401 0.343569 -51.6926 -32.1661 0.343569 -51.6625 -32.1855 
0.343569 -51.3625 -32.3706 0.343569 -50.8342 -32.72 0.343569 -51.0625 -32.557 
0.167829 -51.0625 -32.42 0.133346 -51.1457 -32.3508 0.206602 -51.3173 -32.3062 
0.864607 -54.6625 -34.82 0.865112 -54.6625 -34.52 0.873493 -54.6625 -34.22 
0.885271 -54.6625 -35.12 0.714011 -54.9625 -35.72 0.722221 -54.9625 -36.02 
0.901515 -54.6625 -35.42 0.726596 -54.9625 -36.32 0.943569 -54.6771 -36.32 
0.943569 -54.7037 -36.62 1.19834 -54.3625 -36.62 0.977461 -54.3625 -33.62 
1.03687 -54.0625 -33.32 0.878638 -54.6625 -33.92 0.889663 -54.6625 -33.62 
0.943569 -54.479 -33.62 1.03401 -54.0625 -33.02 1.02961 -54.0625 -32.72 
1.02027 -54.0625 -32.42 0.988645 -54.0625 -32.12 0.969433 -53.7625 -32.12 
0.943569 -53.4667 -32.12 0.943569 -53.1625 -32.2798 0.928127 -52.8625 -32.42 
0.846922 -52.8625 -32.12 1.84357 -49.2625 -35.2194 1.7775 -49.2625 -35.12 
1.54357 -49.2625 -34.7857 1.97481 -49.2625 -35.42 2.14357 -49.2625 -35.651 
1.32615 -49.2625 -34.52 1.24357 -49.2625 -34.4296 0.802818 -49.5625 -33.92 
[...]
POINT_DATA 5721
SCALARS scalars float
LOOKUP_TABLE default
-2.97199 -2.90714 -3.00271 -2.9262 -3.27881 -2.79791 -2.66471 -3.03065 -3.09619 
-3.32985 -2.73473 -2.89701 -3.24499 -3.62788 -3.5886 -2.73557 -2.61149 -2.36377 
-2.30265 -3.106 -3.39416 -3.39422 -3.68384 -2.82227 -2.44282 -2.88097 -2.71905 
-3.22343 -3.51071 -3.36867 -3.96608 -3.72831 -3.59998 -3.58142 -2.57381 -2.06425 
-1.99387 -1.94396 -2.25538 -3.20022 -3.47475 -3.74209 -3.82265 -2.92676 -2.53971 
-2.25857 -2.15297 -2.64593 -2.58544 -3.05504 -2.78702 -2.55033 -2.48596 -3.0985 
-3.25754 -3.29984 -3.06264 -4.04487 -3.99099 -3.73951 -3.6355 -3.61695 -3.24649 
-3.48999 -1.97517 -2.08597 -1.92384 -1.89036 -2.01943 -1.6175 -2.22213 -3.30669 
-3.57508 -3.84628 -3.75633 -4.08658 -3.03995 -2.74791 -2.81942 -2.65169 -2.50147 
-2.37707 -1.98483 -2.37445 -2.34904 -2.50117 -2.2166 -2.81464 -2.52951 -2.20054 
-2.76986 -3.00615 -2.9513 -2.86631 -3.04237 -2.83531 -4.28259 -4.04063 -3.77289 
-3.64433 -3.64555 -3.25037 -3.49186 -3.03544 -3.0284 -1.86884 -1.7667 -1.68506 
-1.56802 -1.8673 -2.07892 -1.37907 -1.30129 -1.25575 -3.41724 -3.68324 -3.10555 
-3.9484 -4.21859 -4.12373 -2.49942 -2.88284 -2.10829 -1.71555 -1.59008 -2.1321 
-2.24445 -2.2142 -2.03303 -1.93904 -1.83818 -2.4774 -2.18501 -2.62392 -2.75252 
-2.52679 -2.78293 -2.72496 -2.57145 -2.56699 -4.20978 -4.49362 -3.82241 -3.63708 
-3.26443 -3.50455 -3.1017 -3.08025 -2.74599 -1.47513 -1.54242 -1.24691 -1.38849 
-1.80335 -1.08693 -1.17543 -0.920107 -3.53293 -3.71762 -3.15436 -4.01263 -4.32765 
-4.39656 -2.60879 -2.2273 -2.9908 -3.2614 -1.84246 -1.57158 -1.44835 -1.31665 
-1.82756 -1.95656 -1.9283 -1.77796 -1.67237 -1.60651 -1.50929 -2.38068 -2.31214 
-2.10261 -1.82317 -1.89426 -2.50395 -2.44429 -2.36803 -2.25061 -2.30894 -2.36422 
-2.15366 -2.14943 -4.31178 -4.16843 -4.59605 -4.58937 -4.14829 -3.88867 -3.61529 
-3.6315 -3.54159 -3.30254 -3.12238 -2.75549 -3.00197 -2.56458 -2.54823 -1.18679 
-1.48677 -1.2166 -1.14896 -1.60648 -1.49568 -0.980454 -0.761985 -1.05189 -0.8758 
-0.653292 -0.595962 -0.580343 -0.786487 -3.64072 -3.91127 -3.79974 -4.06222 -4.44747 
-4.71012 -4.62111 -2.72356 -2.33871 -1.95673 -3.11058 -3.37379 -1.68799 -1.42076 
-1.29915 -1.18173 -1.02695 -1.68654 -1.64261 -1.66533 -1.6063 -1.41962 -1.35605 
-1.3026 -1.11812 -1.25028 -1.91494 -1.79741 -1.53308 -2.25644 -2.02175 -2.27443 
-2.0507 -2.11539 -1.97494 -1.82959 -1.82779 -4.39507 -4.7382 -4.0742 -3.65865 
-3.57855 -3.36134 -3.12017 -3.12731 -3.02452 -2.79107 -2.58752 -2.25921 -2.49903 
-1.34308 -0.850062 -0.94891 -1.03195 -1.10947 -0.899128 -0.606229 -0.426433 -0.507538 
-0.315449 -0.20848 -0.515973 -0.181685 -3.69392 -3.4235 -4.18262 -3.98157 -4.56429 
-4.26564 -4.83382 -4.95471 -4.87804 -2.85119 -2.46004 -2.07288 -2.90446 -3.16268 
-1.81248 -1.55836 -1.31004 -1.15785 -1.0284 -0.946445 -0.971542 -0.768537 -1.55238 
-1.36015 -1.27069 -1.37418 -1.31853 -1.16884 -1.10389 -1.0657 -0.892516 -0.995258 
-1.62992 -1.66224 -1.50896 -1.23934 -2.0069 -1.88415 -1.79485 -1.73428 -1.65202 
-1.88186 -1.65921 -1.54186 -1.60932 -1.43384 -4.62415 -4.50558 -4.19254 -3.99861 
-3.55187 -3.41351 -3.12714 -3.08053 -3.11464 -2.83815 -2.58886 -2.58838 -2.52131 
-2.28559 -2.0538 -2.04846 -1.00131 -1.01046 -0.787441 -0.590455 -0.898359 -0.480115 
-0.340643 -0.35615 -0.109967 -1.38778e-17 0 -0.00953495 -0.139613 -0.433911 -0.302598 
-0.0830634 -6.93889e-18 -2.77556e-17 -3.7619 -3.50152 -3.24588 -4.02746 -4.68577 -4.95265 
-4.29503 -5.22085 -5.10164 -5.0162 -4.6913 -2.59673 -2.20272 -2.99488 -2.75105 
-2.65421 -1.95394 -1.71386 -1.4852 -1.2668 -1.06953 -0.9007 -0.901133 -0.909064 
-0.627378 -1.08868 -1.0881 -0.992655 -1.02982 -0.955302 -0.902563 -0.856217 -0.7878 
-0.840457 -0.667452 -0.665742 -0.727639 -1.39285 -1.20095 -1.11212 -1.22171 -0.932322 
-1.75679 -1.76717 -1.53813 -1.31412 -1.57058 -1.34955 -1.46166 -1.41738 -1.25648 
-1.0608 -4.31798 -4.74331 -4.22823 -3.84005 -3.6859 -3.49989 -3.14683 -3.00932 
-3.06925 -2.87651 -2.58626 -2.31894 -2.07983 -1.76985 -0.796923 -0.601909 -0.470478 
-0.394793 -0.172354 -0.583108 -0.566055 -0.225933 -0.267309 -0.301329 0 2.08167e-17 
-1.38778e-17 0 -3.46945e-18 0 0 1.38778e-17 1.38778e-17 -0.0884885 -0.00396849 
0 0 -3.90178 -4.16011 -3.64844 -3.40062 -3.15874 -4.42153 -4.72924 
-4.99946 -5.26676 -5.33027 -5.24085 -4.8168 -2.35011 -2.11517 -2.92449 -2.70029 
-2.5161 -2.43487 -1.89047 -1.67953 -1.48158 -1.16647 -1.06423 -0.956859 -0.756583 
-0.651967 -0.488314 -0.334379 -0.810681 -0.796611 -0.78422 -0.679652 -0.743592 -0.64592 
-0.609956 -0.457333 -0.531027 -0.308912 -0.416428 -0.241989 -0.474304 -0.844801 -0.95246 
-0.932874 -0.830797 -0.562355 -1.51349 -1.42474 -1.51574 -1.30232 -1.17692 -1.09336 
-0.969576 -1.13708 -1.18246 -0.968748 -0.738906 -4.13808 -4.49363 -3.95318 -3.68679 
-3.40519 -3.32111 -3.12537 -2.89128 -2.61015 -2.52314 -2.34263 -2.07672 -2.0827 
-1.79671 -1.55278 -0.624522 -0.420259 -0.254237 1.38778e-17 0 1.38778e-17 -0.24459 
-0.425047 -0.158108 -0.167324 0 -0.136411 -1.38778e-17 0 1.38778e-17 0 
-6.93889e-18 0 0 -3.96643 -4.21592 -4.46742 -3.74225 -3.44272 -3.54371 
-3.36892 -3.11528 -4.82635 -4.56735 -5.08823 -5.35263 -5.11152 -5.50633 -5.00856 
-4.61498 -2.2928 -2.23425 -2.90162 -2.70036 -2.48847 -2.08304 -1.88788 -1.70738 
-1.28301 -1.13777 -0.88773 -0.844199 -0.646219 -0.421375 -0.216029 -0.0997936 -0.713862 
-0.504444 -0.520308 -0.446821 -0.408881 -0.371419 -0.464536 -0.29751 -0.422789 -0.535493 
-0.239238 -0.154965 -0.0712153 1.38778e-17 0 0 -0.0571505 -0.617531 -0.49483 
-0.686123 -0.54268 -0.275793 -1.27718 -1.27001 -1.03764 -1.06151 -0.837688 -0.620718 
-0.906645 -0.744586 -0.93366 -0.725743 -0.500507 -0.359585 -3.95251 -4.22938 -4.41525 
-3.49853 -3.3861 -3.20671 -2.83862 -2.73437 -2.88196 -2.59046 -2.46061 -2.07653 
-2.02559 -2.07617 -1.81955 -1.55564 -1.29811 -0.257437 0 0 -0.0623966 
0 -1.38778e-17 -0.00603596 -8.67362e-19 0 -1.38778e-17 0 0 -0.0464384 
-4.0601 -4.31169 -3.81333 -3.53712 -3.76338 -3.23573 -4.91836 -5.17147 -4.6751 
-5.42232 -5.61058 -4.89847 -5.28259 -5.38294 -4.76679 -2.13843 -3.13823 -2.9252 
-2.74904 -2.51445 -2.29069 -2.01053 -1.83957 -1.54523 -1.51246 -1.39073 -1.24717 
-0.98148 -0.729618 -0.474794 -0.199878 -0.112367 -0.0760244 6.93889e-18 0 0 
0 -0.412361 -0.190902 -0.195161 -0.0424786 -0.181042 -0.114665 -0.140304 -0.0384937 
-0.0968833 -0.207112 -0.351977 -0.299182 -0.0203326 0 0 6.93889e-18 0 
0 -0.0146627 -0.376108 -0.244328 -0.279251 -0.157992 -0.414471 -0.153786 -1.04304 
-0.964078 -0.93454 -1.02797 -0.893378 -0.848588 -0.726609 -0.808529 -0.641583 -0.609857 
-0.473793 -0.316609 -0.411312 -0.678248 -0.596917 -0.466267 -0.45742 -0.244944 -0.0357593 
-4.24191 -4.17563 -3.76605 -3.66942 -4.51385 -3.37312 -3.32024 -3.09825 -3.03814 
-2.9456 -2.599 -2.30118 -2.40304 -2.33582 -2.00495 -1.80192 -1.55762 -1.50951 
-1.30962 -1.06693 -0.96214 -0.966672 -6.93889e-18 0 0 0 -8.67362e-19 
0 -4.23924 -4.44328 -4.16239 -3.99804 -3.75054 -3.87308 -3.54256 -3.32097 
-4.0335 -4.98946 -4.73534 -5.24685 -5.50775 -5.77165 -4.68803 -5.04401 -5.1623 
-5.55746 -3.34516 -3.12689 -3.03357 -2.99935 -2.83532 -2.58733 -2.34336 -2.10906 
-1.94336 -1.6955 -1.64825 -1.52627 -1.48519 -1.14369 -0.854524 -0.57878 -0.301151 
-0.208772 -0.14245 0 0 -3.46945e-18 -0.122343 1.38778e-17 0 -0.12697 
0 0 0 0 -6.93889e-18 -1.38778e-17 0 0 3.46945e-18 
0 0 -6.93889e-18 -1.38778e-17 -1.38778e-17 -0.0873701 3.46945e-18 -6.93889e-18 -1.04083e-17 
0 0 -1.73472e-18 -0.0884989 -0.0574375 -6.93889e-18 2.77556e-17 -3.46945e-18 1.38778e-17 
0 -1.38778e-17 6.93889e-18 0 -0.787276 -0.546744 -0.787046 -0.559097 -0.342997 
-0.367918 -0.168642 -0.187883 0 -6.93889e-18 -0.0468045 0 6.93889e-18 0 
3.46945e-18 0 0 -4.48091 -4.32241 -4.02749 -3.9586 -3.66354 -3.58214 
-3.23595 -3.08106 -2.86111 -2.81261 -2.57149 -2.21898 -2.05022 -1.92484 -1.53243 
-1.40751 -1.48621 -1.29557 -1.06076 -0.940407 -0.952596 -0.560494 -0.806489 -0.549462 
-4.4411 -4.48518 -4.20531 -3.98842 -3.9747 -3.65643 -5.10967 -5.34207 -4.88721 
-5.57675 -5.81634 -4.79784 -4.53412 -4.94069 -5.25857 -4.95896 -5.55607 -5.25727 
-3.57004 -3.41016 -3.16173 -3.24373 -2.99789 -2.99471 -2.68534 -2.43542 -2.18769 
-2.04152 -1.7936 -1.78286 -1.61947 -1.74909 -1.42214 -1.09747 -0.788692 -0.482548 
-0.355257 -0.242573 -3.46945e-18 -6.93889e-18 0 0 6.93889e-18 0 0 
6.93889e-18 0 3.46945e-18 -0.322505 -0.320019 -0.191375 -0.326208 -0.11959 1.38778e-17 
1.38778e-17 -0.142873 -6.93889e-18 -1.38778e-17 0 0 6.93889e-18 -5.20417e-18 -0.0420883 
0 -4.6556 -4.35315 -4.27178 -3.95881 -3.82917 -3.43331 -3.13608 -2.94188 
-2.79402 -2.6749 -2.53205 -2.39389 -2.27263 -2.10088 -2.01822 -1.80825 -1.49569 
-1.2764 -1.03407 -0.908008 -0.548392 -0.819535 -0.434632 -0.42537 -0.409774 -4.49047 
-4.66358 -4.31898 -4.08406 -4.16183 -3.78192 -4.18477 -5.17992 -4.92922 -5.43403 
-5.69344 -5.82841 -5.69122 -4.65779 -4.95752 -4.65662 -5.53055 -5.23163 -3.85065 
-3.51604 -3.51048 -3.34367 -3.08532 -3.0153 -2.94166 -2.81975 -2.5538 -2.29474 
-2.0432 -1.91218 -1.81186 -2.04652 -2.09522 -1.73193 -1.41595 -1.32484 -1.11416 
-0.798298 -0.471305 -0.164171 -0.158217 0 -0.0921368 0 2.77556e-17 -0.103214 
0 3.46945e-18 3.46945e-18 1.38778e-17 -6.93889e-18 1.73472e-18 0 -4.35474 -4.07437 
-4.03629 -3.73531 -3.66059 -3.61616 -3.38726 -3.07425 -2.73649 -2.77762 -2.51194 
-2.25338 -2.20817 -1.9933 -1.92522 -1.73856 -1.62314 -1.22613 -1.11814 -0.996296 
-0.759515 -0.871603 -0.797112 -0.415785 -0.434503 -0.300176 -0.0782376 -0.309853 -4.66582 
-4.90673 -5.0925 -4.43374 -4.24571 -3.99772 -4.46211 -3.97458 -4.50112 -5.29835 
-5.51761 -5.73765 -5.78004 -5.48971 -4.35448 -4.93354 -4.63605 -4.49638 -5.1941 
-4.89847 -3.93957 -3.67165 -3.76857 -3.51164 -3.6127 -3.47544 -3.20516 -3.08508 
-3.09138 -3.16693 -3.0051 -2.72503 -2.44885 -2.16621 -2.3378 -2.37615 -2.0362 
-2.41674 -1.7645 -1.44061 -1.325 -1.51706 -1.18544 -0.864589 -0.5313 -0.71113 
-1.04083e-17 1.38778e-17 6.93889e-18 -0.547833 -0.192197 0 -6.93889e-18 0 -1.38778e-17 
0 -6.93889e-18 -6.93889e-18 -4.05096 -3.74729 -3.74456 -3.43757 -3.43334 -3.46825 
-3.17697 -2.95628 -2.62819 -2.4057 -2.09606 -1.77359 -1.44818 -1.41511 -1.19504 
-0.967988 -0.715258 -0.631095 -0.522413 -0.482345 -0.375013 -0.277745 -0.0594159 6.93889e-18 
6.93889e-18 0 -1.38778e-17 0 -4.74708 -5.13312 -5.29975 -5.15547 -5.06888 
-4.59787 -4.39729 -4.04205 -4.52467 -4.74712 -4.12749 -4.35048 -4.85116 -4.68997 
-5.40516 -5.65725 -5.86204 -5.91667 -5.74668 -5.4393 -4.3369 -4.04275 -4.60135 
-4.30211 -5.13746 -4.83467 -3.93928 -4.00336 -3.88654 -3.78806 -3.75215 -3.46688 
-3.36617 -3.28614 -2.96947 -2.69072 -2.63026 -2.66114 -2.33687 -2.22867 -2.36017 
-2.07261 -1.97893 -2.10136 -1.84384 -1.36647 -1.63657 -1.91629 -1.30065 -0.961221 
-0.884639 -0.628396 -0.247494 -2.77556e-17 -6.93889e-18 -1.38778e-17 -3.74454 -3.74773 -3.44412 
-3.23625 -3.36176 -3.10004 -3.04701 -2.73148 -2.48612 -2.51901 -2.27732 -2.23408 
-1.97998 -1.7204 -1.44763 -1.26212 -0.921602 -0.786147 -0.67672 -0.53337 -0.285274 
-0.224107 -0.111655 -0.0398582 -6.93889e-18 0 0 0 -4.92545 -5.16816 
-5.48941 -5.41748 -4.97925 -5.3417 -4.70444 -4.68508 -4.99622 -5.01299 -4.98369 
-4.31565 -4.34292 -4.2223 -4.32383 -4.61219 -5.69591 -5.97893 -5.69413 -5.40872 
-4.03423 -3.73086 -4.54146 -4.44899 -4.24968 -3.9752 -4.00071 -5.12187 -4.75187 
-4.32884 -4.02082 -4.18846 -4.03438 -3.8921 -3.6456 -3.62245 -3.56963 -3.24752 
-2.94927 -2.9265 -2.73581 -2.64222 -2.37847 -2.4575 -2.6856 -2.26707 -2.15268 
-1.44096 -1.7847 -1.95904 -1.91026 -1.05527 -0.400646 -0.688799 -0.577806 -0.276271 
-0.0577565 0 -3.42721 -3.47569 -3.14256 -3.14116 -3.13082 -2.81986 -2.80404 
-2.62131 -2.28309 -2.20443 -2.05953 -1.96058 -1.8096 -1.70403 -1.54432 -1.17092 
-1.07558 -0.647986 -0.604278 -0.413083 -0.297627 -0.477634 -0.0277491 3.46945e-18 0 
-0.196414 9.54098e-18 7.80626e-18 5.20417e-18 -1.38778e-17 0 0 0 -5.67344 
-5.87049 -5.50662 -5.19775 -5.16465 -5.49303 -5.59428 -5.23525 -4.83019 -4.67428 
-4.96745 -5.24558 -5.07376 -5.0907 -4.41427 -4.36393 -4.51092 -4.66803 -5.91027 
-5.77278 -5.93583 -5.60861 -5.324 -5.03882 -3.69827 -3.48372 -4.46274 -4.17138 
-3.95243 -3.65347 -3.68836 -4.66754 -4.38021 -4.51531 -4.4229 -4.45963 -4.38082 
-4.32225 -4.00456 -3.9286 -3.8779 -3.8548 -3.81314 -3.52485 -3.23649 -3.22181 
-2.93358 -3.22696 -2.94103 -2.98813 -2.70031 -2.81911 -2.56892 -2.7631 -2.53821 
-2.62154 -2.40952 -2.10486 -1.56247 -1.9497 -2.26046 -1.15588 -0.741829 -0.278496 
-0.362666 -0.271713 0 0 0 -0.208269 6.93889e-18 -3.39965 -3.11057 
-3.12355 -3.14046 -2.83768 -2.83961 -2.82944 -2.5289 -2.51399 -2.50647 -2.44359 
-2.4266 -2.12638 -2.03039 -1.92888 -1.82997 -1.68598 -1.5985 -1.42561 -1.34773 
-1.12403 -0.8836 -0.510725 -0.172152 -3.46945e-18 -6.93889e-18 0 0 1.04083e-17 
-6.93889e-18 0 -5.8554 -5.69021 -5.40606 -5.53623 -5.72574 -5.76113 -4.94285 
-4.72024 -4.66192 -5.20319 -5.45536 -5.52334 -5.30433 -4.7401 -4.97186 -4.94804 
-5.89138 -6.04001 -5.79788 -5.57918 -5.23195 -5.15195 -4.94997 -3.3537 -3.87817 
-4.09006 -3.58314 -4.57279 -4.41278 -4.91306 -4.28589 -4.21007 -4.62143 -4.77483 
-4.57368 -4.75533 -4.60988 -4.39796 -4.24107 -4.21589 -4.17935 -4.10259 -4.09838 
-3.80344 -3.51376 -3.51903 -3.23961 -3.53257 -3.28423 -3.06367 -3.32645 -2.87044 
-2.99709 -3.16468 -2.70668 -2.50534 -2.85705 -1.57113 -1.68169 -1.95885 -2.50409 
-2.51009 -2.39345 -2.05425 -1.27332 -1.18647 -0.754968 -0.251331 -0.493557 -0.0342433 
0 0 -3.09319 -2.79114 -2.81907 -2.75815 -2.53592 -2.71289 -2.53672 
-2.23458 -2.22874 -2.20937 -2.15645 -1.86479 -1.82529 -1.76596 -1.64481 -1.59218 
-1.40324 -1.14668 -1.28938 -0.923004 -0.872653 -0.680087 -0.619137 -0.413463 0 
-2.77556e-17 0 -6.04209 -6.0825 -6.01122 -5.60356 -5.90734 -6.04761 -5.86884 
-5.19547 -5.42823 -5.48628 -5.71883 -5.80666 -5.69105 -4.8222 -5.15743 -5.20996 
-5.06633 -5.06074 -5.20248 -5.69469 -5.42022 -5.51439 -5.8982 -5.13855 -3.28724 
-3.05336 -3.79748 -4.00061 -3.7578 -3.49061 -3.24534 -4.47944 -4.85571 -4.19448 
-3.90697 -4.93057 -5.10593 -4.86909 -4.87307 -4.87186 -4.85266 -4.50657 -4.49239 
-4.43151 -4.4184 -4.39214 -4.38564 -4.093 -3.81048 -3.82312 -3.57695 -3.60346 
-3.35754 -3.64734 -3.28351 -3.334 -3.1399 -3.45226 -2.56619 -3.20827 -3.23857 
-3.00683 -2.71021 -1.64356 -1.99954 -2.05747 -1.78288 -2.52955 -2.83143 -2.16567 
-1.34833 -1.27542 -0.835051 -0.938057 -0.778888 -0.180745 -0.604011 -0.293014 -0.79312 
0 0 0 0 0 -2.49052 -2.75291 -2.51933 -2.52416 
-2.22779 -2.23484 -2.23697 -2.53764 -1.93679 -1.9332 -1.92883 -2.14715 -1.9098 
-1.60322 -1.57112 -1.5214 -1.48985 -1.34875 -1.32807 -1.15014 -1.11854 -0.83147 
-0.699718 -0.594666 -0.465163 -0.356229 -0.178119 -0.144142 -6.93889e-18 -5.99125 -6.19926 
-6.10263 -6.18718 -6.22177 -6.10127 -5.32952 -5.64035 -5.66087 -5.42464 -5.83246 
-5.99545 -5.85677 -5.00425 -4.84178 -4.83281 -5.21515 -5.23292 -5.63323 -5.30102 
-5.02764 -5.43602 -5.84156 -5.96951 -4.75418 -2.98622 -2.9512 -2.72145 -3.50174 
-3.71155 -3.42162 -3.2093 -2.91539 -4.35975 -4.0853 -3.61807 -3.80835 -4.85989 
-4.86823 -4.85473 -4.74315 -4.63157 -4.55153 -4.57011 -4.80045 -4.75588 -4.72388 
-4.69749 -4.68155 -4.67129 -4.3826 -4.10209 -4.11141 -4.15211 -3.86688 -3.88699 
-3.93446 -3.73711 -3.58693 -3.38618 -3.42032 -3.57114 -3.6716 -3.29531 -3.1461 
-3.42064 -1.72181 -2.11747 -2.25782 -1.86895 -2.53625 -3.12846 -2.93108 -1.40224 
-1.03928 0 -0.105858 -0.71869 -0.4203 -0.829176 -2.44536 -2.29756 -2.19097 
-2.21867 -1.91838 -1.93063 -1.9343 -1.63681 -1.63218 -1.62903 -1.61102 -1.3122 
-1.30047 -1.27613 -1.21662 -1.08647 -1.05033 -0.91251 -0.664526 -0.543474 -0.466898 
-0.328564 -0.218893 -0.131278 0 0 -0.0894387 6.93889e-18 0 -6.27626 
-6.2777 -5.94555 -5.68883 -5.42754 -5.66274 -5.36434 -5.70966 -5.91401 -5.93299 
-6.17938 -6.16019 -5.72261 -5.79431 -6.09857 -4.48405 -4.4609 -4.55656 -4.75871 
-4.82901 -5.1777 -5.57432 -5.22415 -4.90553 -4.63331 -5.09384 -5.4308 -2.62174 
-2.69457 -2.39848 -3.1299 -3.33017 -2.83726 -4.23679 -3.96453 -3.52739 -3.68996 
-4.52279 -4.53776 -4.57281 -4.37098 -4.20462 -4.20349 -4.51378 -4.54194 -4.50969 
-4.52001 -4.67031 -4.5936 -4.39417 -4.39829 -4.43773 -4.1759 -4.2181 -4.01874 
-3.82283 -4.08192 -3.69858 -3.84081 -3.69737 -3.84735 -3.97286 -3.23915 -3.52444 
-1.81652 -1.44732 -2.19546 -2.61037 -2.6345 -2.34323 -1.95419 -3.15455 -3.32528 
-3.01571 -2.69085 -1.15856 1.38778e-17 -0.0680899 -6.93889e-18 -0.90213 -0.567785 -0.140819 
-0.296752 -2.10242 -2.15398 -1.87127 -1.89122 -1.61858 -1.63242 -1.63418 -1.33692 
-1.33144 -1.32937 -1.01363 -0.995814 -0.980598 -1.0464 -0.815986 -0.751193 -0.461564 
-0.399256 -0.285054 -0.202286 -0.152261 1.38778e-17 -1.38778e-17 -6.93889e-18 2.77556e-17 0 
-6.31437 -6.04829 -6.20452 -6.29523 -6.14826 -5.78744 -5.52995 -5.87195 -5.27377 
-5.22296 -5.57151 -5.21413 -5.44906 -5.72252 -6.02614 -4.30484 -4.49347 -4.16418 
-4.42302 -4.56804 -4.81027 -4.9843 -5.17131 -4.79667 -4.50217 -5.01786 -2.32832 
-2.54485 -3.04237 -3.23952 -2.75364 -4.09287 -3.83375 -3.56745 -3.4132 -4.18088 
-4.27588 -3.83893 -3.85267 -3.90427 -3.94802 -4.27848 -4.27684 -4.45741 -4.43962 
-4.4653 -4.42301 -4.68313 -4.63421 -4.46748 -4.50012 -4.57881 -4.29948 -4.35225 
-4.12322 -4.39826 -4.10552 -3.96546 -3.79456 -4.24171 -3.60303 -1.47984 -1.93623 
-1.61341 -2.04004 -2.29712 -2.71743 -2.78051 -2.43614 -3.22697 -3.39681 -3.66832 
-3.0984 -1.30669 -0.932394 -1.53108 3.46945e-18 0 0 -0.72369 -0.454879 
3.46945e-18 6.93889e-18 -1.38778e-17 -0.0364961 -0.192102 -1.80693 -2.03513 -1.85528 -1.55731 
-1.58051 -1.59203 -1.31921 -1.3334 -1.05738 -1.0374 -1.03059 -0.9731 -0.716004 
-0.691887 -0.684673 -0.628358 -0.918569 -0.608011 -0.536959 -0.223511 -0.189726 0 
2.77556e-17 -1.38778e-17 0 -1.38778e-17 1.38778e-17 -1.38778e-17 -1.38778e-17 1.38778e-17 -6.16354 
-5.89473 -6.32669 -6.33182 -5.64424 -5.36884 -5.11176 -4.85713 -4.78821 -5.22304 
-5.09576 -4.77761 -5.35544 -5.21593 -5.70502 -5.96369 -6.26739 -5.70423 -4.07083 
-4.11925 -4.06324 -4.06033 -4.02813 -4.39093 -4.76103 -4.34896 -2.25289 -2.46515 
-2.95187 -3.13509 -2.66364 -2.45518 -2.39906 -3.93563 -4.18774 -3.68167 -3.29402 
-3.42474 -4.02723 -3.52127 -3.46244 -3.55224 -3.77873 -3.80859 -3.59618 -3.64423 
-3.97622 -3.97386 -4.26454 -4.25613 -4.23458 -4.22554 -4.19866 -4.1797 -4.15551 
-4.40165 -4.37176 -4.39077 -4.59255 -4.57507 -4.50502 -4.63204 -4.67145 -4.58937 
-4.50764 -4.36692 -4.37897 -4.22697 -4.07443 -4.25217 -3.97847 -3.86793 -4.62291 
-3.93292 -2.11709 -1.76447 -2.42757 -2.87261 -3.17803 -2.52644 -3.3467 -3.73206 
-3.46355 -3.99838 -1.00832 -1.46707 -1.17109 -1.59131 -0.954516 -0.882384 -0.60666 
-0.995059 -0.332136 0 0 -1.38778e-17 0 -0.052231 -1.51148 -1.74258 
-1.96109 -1.73432 -1.25966 -1.28322 -1.29349 -1.02008 -0.735863 -0.737139 -0.739219 
-0.732267 -0.432637 -0.419671 -0.391376 -0.334266 -0.318139 -0.252879 0 1.38778e-17 
0 2.77556e-17 0 -6.01419 -5.74198 -5.51232 -6.23621 -5.20774 -4.94822 
-4.69219 -4.57098 -4.60063 -4.3839 -4.99697 -4.71292 -4.74596 -4.35667 -5.28707 
-5.63708 -5.19383 -4.92041 -5.93258 -6.23146 -5.60429 -3.73241 -3.93109 -3.68184 
-3.98478 -4.43921 -2.18653 -1.93465 -2.85712 -2.60108 -3.01748 -2.28679 -2.37547 
-2.08801 -3.77163 -4.02173 -4.2733 -3.5212 -3.26861 -3.16315 -3.01292 -3.29008 
-3.22891 -3.39683 -3.59997 -3.28712 -3.32022 -3.33834 -3.67311 -3.91176 -3.95526 
-3.95044 -3.93121 -3.92393 -3.87901 -3.82397 -4.07786 -4.04048 -4.30165 -4.24239 
-4.15799 -4.4255 -4.33458 -4.23147 -4.48305 -4.65514 -4.48455 -4.56118 -4.31062 
-4.37329 -4.12455 -4.01058 -4.1949 -4.36405 -4.59228 -2.1445 -1.93121 -2.58174 
-2.93027 -3.25574 -3.53754 -4.06533 -3.80547 -4.11854 -1.32201 -1.61976 -0.971041 
-0.730361 -0.439355 -0.841428 -0.147297 0 0 0 -1.21599 -1.44992 
-1.67003 -1.40372 -1.59487 -0.92021 -0.962118 -0.986709 -0.995148 -0.721585 -0.438368 
-0.440269 -0.44266 -0.436755 -0.140209 -0.118958 -0.0992293 -0.0943121 -0.175856 0 
-5.86323 -6.19043 -5.58838 -5.44726 -5.31563 -5.04862 -4.78642 -4.5473 -4.28467 
-4.72539 -4.61467 -4.53755 -4.32239 -5.25346 -5.14096 -4.89253 -5.93697 -5.60741 
-3.80011 -3.42811 -3.6318 -3.93551 -4.19032 -1.88453 -2.72539 -2.46306 -2.89431 