# vtk DataFile Version 4.2
3D Slicer output. SPACE=LPS
ASCII
DATASET POLYDATA
POINTS 3057 float
-71.9219 15.4893 9.13063 -71.7918 15.4893 8.99258 -71.7918 15.3481 9.13063 
-72.2918 15.8303 9.13063 -72.2918 15.4893 9.68306 -72.2918 15.9893 8.92876 
-71.9752 15.9893 8.63063 -71.7918 15.8422 8.63063 -71.4289 14.9893 9.13063 
-71.374 15.4893 8.63063 -71.7918 14.9893 9.60808 -72.4354 15.9893 9.13063 
-72.6384 15.9893 9.63063 -71.8048 14.9893 9.63063 -72.4798 15.4893 10.1306 
-72.2918 15.2187 10.1306 -72.1029 14.9893 10.1306 -72.7176 16.4893 9.13063 
-72.2918 16.3323 8.63063 -71.7918 15.9893 8.49339 -71.9121 16.4893 8.13063 
-71.2918 14.9893 9.02545 -71.2918 14.8836 9.13063 -71.2918 14.5433 9.63063 
-71.2918 15.4229 8.63063 -71.2986 15.9893 8.13063 -71.7918 14.6827 10.1306 
-71.2918 14.4893 9.7339 -72.7918 16.4893 9.35649 -72.7918 16.3288 9.63063 
-72.752 15.9893 10.1306 -72.7918 16.0987 10.1306 -72.5721 15.4893 10.6306 
-72.281 14.9893 10.6306 -71.7918 14.4893 10.5095 -72.3994 16.4893 8.63063 
-72.7918 16.6588 9.13063 -72.2918 16.4893 8.5071 -71.7918 16.3804 8.13063 
-71.7918 16.4893 8.0288 -72.2918 16.9442 8.13063 -71.8119 16.9893 7.63063 
-71.7918 16.9672 7.63063 -70.7918 14.4987 9.13063 -70.7904 14.9893 8.63063 
-70.7918 14.4893 9.14448 -70.7918 14.1634 9.63063 -70.7918 15.4893 8.23057 
-70.7918 15.602 8.13063 -70.7918 15.9893 7.80732 -71.2918 16.4893 7.68418 
-71.199 16.4893 7.63063 -71.5704 14.4893 10.1306 -71.2918 14.2995 10.1306 
-72.8513 16.4893 9.63063 -73.0525 16.9893 9.63063 -72.9228 16.4893 10.1306 
-72.7918 15.971 10.6306 -72.9765 16.4893 10.6306 -72.7429 15.4893 11.1306 
-72.3999 14.9893 11.1306 -72.2918 14.9893 10.676 -72.7918 15.5833 11.1306 
-71.7918 14.4258 10.6306 -71.2918 14.0556 10.6306 -72.7918 16.9893 8.78464 
-72.7113 16.9893 8.63063 -72.9407 16.9893 9.13063 -72.3232 17.4893 7.81157 
-72.2918 17.467 7.79263 -72.6243 17.4893 8.13063 -72.1633 17.4101 7.70321 
-72.7918 17.1669 8.63063 -72.0722 17.3841 7.63063 -71.7973 17.3522 7.37893 
-71.2918 16.9893 7.30242 -71.7918 17.3525 7.37479 -70.3854 14.4893 8.63063 
-70.2918 14.0227 9.13063 -70.2918 14.9893 8.25066 -70.6259 13.9893 9.63063 
-70.7918 13.9893 9.95757 -70.6399 15.4893 8.13063 -70.2918 15.4893 7.91355 
-70.4596 15.9893 7.63063 -70.7918 16.2148 7.63063 -70.7918 16.4893 7.41617 
-70.8772 13.9893 10.1306 -71.1947 13.9893 10.6306 -73.2289 17.4893 9.63063 
-73.1335 17.4893 9.13063 -73.1192 16.9893 10.1306 -73.2918 17.4893 10.0436 
-72.9474 15.9893 11.1306 -73.089 16.4893 11.1306 -73.1584 16.9893 10.6306 
-72.7918 15.4893 11.2419 -72.2918 14.8309 11.1306 -72.576 14.9893 11.6306 
-72.7918 15.2651 11.6306 -72.048 14.4893 11.1306 -71.7918 14.2073 11.1306 
-71.5622 13.9893 11.1306 -71.2918 13.9893 10.7422 -72.5135 17.6519 7.96412 
-72.7843 17.9631 8.13063 -72.7918 17.4893 8.38373 -72.7918 17.9731 8.13675 
-72.9297 17.4893 8.63063 -70.9518 16.9893 7.13063 -71.5494 17.418 7.15512 
-71.2918 17.2463 7.13063 -71.68 17.3775 7.28807 -70.2918 14.4011 8.63063 
-70.2918 14.4893 8.54804 -69.7801 13.9893 8.63063 -69.7918 13.4625 9.13063 
-70.2918 13.5554 9.63063 -70.1061 14.9893 8.13063 -70.2918 15.1766 8.13063 
-70.4956 13.4893 10.1306 -70.2918 13.4893 9.71006 -70.7918 13.8979 10.1306 
-69.7918 14.9893 7.93771 -69.804 15.4893 7.63063 -70.2918 15.8776 7.63063 
-70.2918 15.9893 7.55541 -70.2918 16.4893 7.20828 -70.7918 16.8774 7.13063 
-70.2918 16.6017 7.13063 -70.7918 13.6006 10.6306 -70.7918 13.4893 10.7697 
-73.2918 17.6507 9.63063 -73.2918 17.8286 9.13063 -73.2918 17.9893 8.90682 
-73.2918 17.4497 10.1306 -73.2918 17.2862 10.6306 -73.5223 17.9893 10.1306 
-73.3883 17.4893 10.6306 -73.0813 15.9893 11.6306 -73.2389 16.9893 11.1306 
-73.1675 16.4893 11.6306 -73.2918 16.9893 11.3507 -73.2918 17.103 11.1306 
-72.9177 15.4893 11.6306 -72.2409 14.4893 11.6306 -72.7251 14.9893 12.1306 
-72.3975 14.4893 12.1306 -72.2918 14.4893 11.777 -72.7918 15.0831 12.1306 
-72.991 15.4893 12.1306 -71.7918 13.982 11.6306 -71.2918 13.7054 11.1306 
-71.2918 13.4815 11.6306 -72.8 17.9852 8.14236 -73.1434 17.9893 8.63063 
-70.7918 16.9893 7.05996 -70.7918 17.4893 6.74422 -71.5213 17.4319 7.13063 
-71.2918 17.4893 6.96787 -69.7918 14.4893 8.24569 -69.7918 14.6756 8.13063 
-69.2918 13.4873 8.63063 -69.2918 13.9893 8.2852 -69.7918 12.9867 9.63063 
-69.4128 12.9893 9.13063 -69.2918 12.9893 8.98061 -70.2918 13.2407 10.1306 
-70.6998 13.4893 10.6306 -70.04 12.9893 10.1306 -69.5694 14.4893 8.13063 
-69.2918 14.4893 7.99737 -69.2918 14.9893 7.68029 -69.7918 15.4782 7.63063 
-69.2918 15.071 7.63063 -69.7918 15.9893 7.37536 -69.2918 15.4893 7.41263 
-70.0245 16.4893 7.13063 -70.2918 16.9893 6.8938 -71.076 13.4893 11.1306 
-70.7918 13.2467 11.1306 -70.5185 12.9893 11.1306 -70.2918 12.9893 10.7301 
-73.4534 17.9893 9.63063 -73.3764 17.9893 9.13063 -73.6234 18.4893 9.13063 
-73.2918 18.3142 8.63063 -73.5192 17.4893 11.1306 -73.6638 17.9893 10.6306 
-73.8478 18.4893 10.1306 -73.7918 18.4893 9.85413 -73.7918 18.1776 10.6306 
-73.7918 17.9893 10.8773 -73.1398 15.9893 12.1306 -73.2307 16.4893 12.1306 
-73.2918 16.7016 12.1306 -73.2918 16.8582 11.6306 -73.3458 16.9893 11.6306 
-73.6149 17.4893 11.6306 -72.5491 14.4893 12.6306 -72.7918 14.9893 12.618 
-72.2918 14.3264 12.1306 -72.2918 14.2123 12.6306 -72.0131 13.9893 12.1306 
-72.9747 15.4893 12.6306 -73.1284 15.9893 12.6306 -71.7918 13.7933 12.1306 
-71.445 13.4893 12.1306 -71.2918 13.3664 12.1306 -70.7918 12.9893 11.8434 
-70.7401 12.9893 11.6306 -73.0144 18.334 8.28592 -73.0775 18.426 8.31124 
-70.7918 17.664 6.63063 -70.4049 17.4893 6.63063 -71.4202 17.4893 7.03745 
-71.354 17.5282 6.98813 -71.2968 17.5595 6.92048 -69.0063 12.9893 8.63063 
-68.7918 13.4893 8.237 -68.7918 13.6901 8.13063 -69.0507 13.9893 8.13063 
-69.2918 14.2449 8.13063 -69.7918 12.7238 10.1306 -69.4872 12.4893 9.63063 
-69.2918 12.7416 9.13063 -70.2351 12.9893 10.6306 -68.7918 14.4893 7.72779 
-68.7918 14.673 7.63063 -69.1709 14.9893 7.63063 -69.7918 16.3975 7.13063 
-69.2918 15.9893 7.21678 -69.2918 16.1729 7.13063 -68.7918 14.9893 7.466 
-68.7918 15.4893 7.20847 -68.7918 15.7077 7.13063 -69.0514 15.9893 7.13063 
-69.7918 16.4893 7.07201 -69.7918 16.9893 6.77192 -70.2918 17.4391 6.63063 
-69.7918 17.2113 6.63063 -70.2918 12.7755 11.1306 -70.2918 12.5701 11.6306 
-70.0374 12.4893 11.1306 -69.7918 12.4893 10.6054 -73.7918 18.5496 9.63063 
-73.3729 18.4893 8.63063 -73.7918 18.8813 9.13063 -73.7918 18.9893 9.01068 
-73.6052 18.9893 8.63063 -73.2918 18.4893 8.52386 -73.1205 18.4893 8.32307 
-73.7918 17.8358 11.1306 -73.7918 17.7402 11.6306 -74.2293 18.9893 10.1306 
-74.0331 18.4893 10.6306 -74.2918 18.9893 10.3181 -74.0683 18.9893 9.63063 
-73.8842 17.9893 11.1306 -74.1717 18.4893 11.1306 -73.2595 16.4893 12.6306 
-73.2918 16.6205 12.6306 -73.3951 16.9893 12.1306 -73.3928 16.9893 12.6306 
-73.6301 17.4893 12.1306 -72.7927 14.9893 12.6306 -72.596 14.4893 13.1306 
-72.2918 14.224 13.1306 -72.8124 14.9893 13.1306 -72.0667 13.9893 12.6306 
-71.7918 13.7387 12.6306 -72.916 15.4893 13.1306 -73.0148 15.9893 13.1306 
-73.2106 16.4893 13.1306 -71.565 13.4893 12.6306 -70.8463 12.9893 12.1306 
-71.2918 13.2213 12.6306 -70.999 12.9893 12.6306 -70.3584 12.4893 12.1306 
-70.2918 12.4893 11.8484 -70.9724 17.7737 6.63063 -70.7918 17.8936 6.45561 
-70.2918 17.9893 6.24721 -68.7918 12.9893 8.43769 -68.7918 12.4893 8.64077 
-69.191 12.4893 9.13063 -68.657 13.4893 8.13063 -68.7918 13.9893 7.97273 
-68.2918 13.4893 7.8168 -69.6339 12.4893 10.1306 -69.4006 11.9893 10.1306 
-69.2918 11.9733 9.63063 -69.2918 12.4893 9.27457 -68.6283 14.4893 7.63063 
-68.2918 14.4893 7.4275 -69.2918 16.4893 6.96608 -68.7918 16.4893 6.8019 
-68.2918 14.9893 7.18977 -68.2918 15.1099 7.13063 -68.6335 15.4893 7.13063 
-68.7918 15.9893 7.02575 -68.2918 15.9893 6.81833 -68.2918 15.4893 6.96511 
-69.2918 16.9893 6.66464 -69.7918 17.4893 6.44041 -69.2918 17.4893 6.32695 
-70.226 12.4893 11.6306 -69.7918 12.0956 11.1306 -69.9177 11.9893 11.6306 
-69.7918 11.9893 11.2644 -69.4962 11.9893 10.6306 -73.8535 18.9893 9.13063 
-74.1516 19.4893 9.13063 -73.7918 19.3355 8.63063 -73.4434 18.9893 8.42069 
-73.6868 19.3885 8.45833 -73.5611 19.1763 8.44359 -73.4777 19.0549 8.42717 
-73.2918 18.7324 8.37802 -73.9322 17.9893 11.6306 -73.7918 17.7729 12.1306 
-74.2918 19.0878 10.1306 -74.2918 18.6898 11.1306 -74.2918 18.8422 10.6306 
-74.3861 18.9893 10.6306 -74.6287 19.4893 10.6306 -74.4966 19.4893 10.1306 
-74.2918 19.4305 9.63063 -74.2918 19.4893 9.55388 -74.2045 18.4893 11.6306 
-74.2918 18.6187 11.6306 -73.2918 16.7004 13.1306 -73.6351 17.4893 12.6306 
-73.3882 16.9893 13.1306 -73.6001 17.4893 13.1306 -73.7918 17.7369 12.6306 
-72.4551 14.4893 13.6306 -72.7918 14.9893 13.4876 -72.0173 13.9893 13.1306 
-72.2918 14.3122 13.6306 -71.9532 13.9893 13.6306 -71.7918 13.7455 13.1306 
-71.6106 13.4893 13.1306 -72.9136 15.4893 13.6306 -72.9921 15.9893 13.6306 
-73.1782 16.4893 13.6306 -70.7918 12.8284 12.6306 -71.2918 13.147 13.1306 
-71.0836 12.9893 13.1306 -70.7918 12.7868 13.1306 -70.2918 12.4037 12.1306 
-70.4104 12.4893 12.6306 -69.9905 11.9893 12.1306 -70.653 17.9893 6.34506 
-69.8107 17.9893 6.13063 -70.2918 18.1377 6.13063 -68.2918 12.6475 8.13063 
-68.3965 12.9893 8.13063 -68.2589 12.4893 8.13063 -68.5879 11.9893 8.63063 
-68.7918 11.9893 8.85652 -69.0061 11.9893 9.13063 -68.2918 13.9746 7.63063 
-68.2918 12.9893 8.03822 -67.9398 12.9893 7.63063 -68.1178 13.4893 7.63063 
-69.2918 11.7548 10.1306 -69.0453 11.4893 9.63063 -67.7543 14.4893 7.13063 
-67.7918 13.9893 7.26933 -67.7918 14.5476 7.13063 -68.1731 14.9893 7.13063 
-69.1499 16.9893 6.63063 -68.7918 16.8249 6.63063 -68.3291 16.4893 6.63063 
-67.7918 14.9893 6.95921 -67.7918 15.9893 6.67311 -67.7918 15.4893 6.80648 
-67.7918 16.1125 6.63063 -69.2918 17.7906 6.13063 -68.7918 17.4893 6.26828 
-68.7918 17.7357 6.13063 -69.7279 11.9893 11.1306 -69.7918 11.7609 11.6306 
-69.4674 11.4893 11.1306 -69.2918 11.4893 10.7562 -69.2918 11.6149 10.6306 
-73.8902 19.4893 8.63063 -74.1559 19.9709 8.75821 -74.1173 19.8958 8.7241 
-74.2918 19.9172 9.13063 -73.8313 19.4893 8.55916 -73.7918 19.4279 8.55884 
[...]
POINT_DATA 3057
SCALARS scalars float
LOOKUP_TABLE default
-2.40665 -2.34379 -2.53672 -2.1159 -2.73606 -1.86543 -1.70832 -1.85529 -2.89523 
-2.24152 -3.1046 -1.99668 -2.35557 -3.11683 -3.05412 -3.24189 -3.41441 -1.66084 
-1.41178 -1.66036 -1.03327 -2.8732 -3.01358 -3.55888 -2.32022 -1.62142 -3.66926 
-3.66051 -1.83741 -2.14847 -2.74499 -2.68231 -3.43744 -3.7619 -4.06392 -1.29105 
-1.55854 -1.21206 -1.14841 -1.00739 -0.622802 -0.39714 -0.422072 -3.47401 -2.8484 
-3.48822 -3.99364 -2.27734 -2.14897 -1.72738 -1.03843 -1.06452 -3.84667 -4.04305 
-2.05721 -1.80622 -2.47337 -3.16323 -2.90533 -3.84465 -4.13916 -3.79527 -3.79348 
-4.19201 -4.54063 -1.08817 -0.961954 -1.38003 0 -1.73472e-17 -0.253691 0 
-0.860139 0 0 -0.520512 2.77556e-17 -3.42405 -4.04447 -2.92382 -4.18493 
-4.30715 -2.31085 -2.42125 -1.85988 -1.49588 -1.22588 -4.38131 -4.6096 -1.59225 
-1.14667 -2.24383 -1.9687 -3.58501 -3.35309 -2.69127 -3.93823 -4.24184 -4.53691 
-4.38518 -4.47936 -4.69539 -4.87764 -4.66173 -2.77556e-17 -6.93889e-18 -0.474713 -6.93889e-18 
-0.696269 -0.683463 -1.38778e-17 -0.279724 0 -3.53671 -3.43455 -4.10781 -4.53256 
-4.64788 -2.98016 -2.73452 -4.88215 -4.73864 -4.47509 -3.09922 -2.63474 -2.04429 
-1.94099 -1.49176 -0.867874 -1.39373 -4.99502 -5.16308 -1.53265 -1.02144 -0.76131 
-2.06331 -2.58227 -1.8949 -2.51543 -4.02711 -3.1513 -3.8059 -3.35724 -3.1112 
-4.26957 -4.84625 -4.95139 -5.23642 -4.95864 -4.90253 -4.70061 -5.21006 -5.12485 
-5.62353 -5.20417e-18 -0.489798 -0.770287 -0.346191 -1.38778e-17 -0.0646147 -3.57876 -3.39763 
-4.00198 -4.17642 -4.57442 -4.05221 -3.89527 -5.14455 -5.10394 -5.0472 -3.66716 
-3.79225 -3.34008 -2.65061 -3.26846 -2.21767 -2.91525 -1.65232 -1.06839 -5.32422 
-5.56698 -5.82893 -5.60531 -1.42733 -0.973065 -0.849787 -0.390204 -2.99371 -2.38215 
-1.80022 -1.53422 -2.34622 -2.63472 -4.4717 -4.13797 -3.9256 -3.66493 -3.61943 
-3.19458 -5.64254 -5.36519 -5.33704 -5.80596 -5.56172 -5.02394 -4.51681 -5.70671 
-5.9496 -6.05563 -6.21483 -6.08663 0 0 -0.201005 -0.587013 0 
0 0 -3.537 -3.54607 -3.6363 -3.98231 -4.01522 -4.79401 -4.16812 
-3.85176 -5.50404 -4.03923 -3.88281 -3.40587 -1.87448 -2.51897 -2.37277 -3.61801 
-3.20817 -3.03773 -2.66431 -1.79757 -1.38429 -0.699102 -1.19577 -5.81284 -6.12595 
-5.578 -5.05057 -1.3146 -0.347779 -0.767598 -0.629448 -0.259557 -0.230228 -1.38778e-17 
-2.9181 -2.89627 -1.73294 -2.30567 -1.73311 -1.25647 -2.74364 -2.18184 -4.02052 
-3.89159 -3.62913 -3.52596 -3.08874 -5.37604 -5.96141 -6.21038 -5.42918 -5.94924 
-6.12437 -4.94088 -4.45737 -3.93479 -6.30642 -6.39798 -6.51759 -6.72081 -6.53604 
-6.27378 2.77556e-17 -6.93889e-18 -0.218199 -3.31792 -3.13973 -3.66689 -3.42758 -3.78377 
-3.10405 -4.61076 -4.29346 -3.8413 -3.81694 -3.94558 -3.69891 -2.1175 -2.36014 
-3.74359 -3.65344 -3.29949 -2.81708 -2.88635 -3.38284 -1.6893 -0.948309 -1.16902 
-6.06623 -5.32305 -5.76073 -5.39796 -4.7445 -0.75315 -0.67063 -0.228356 -2.77556e-17 
0 0 -2.77556e-17 -2.77556e-17 -2.61645 -2.76893 -1.62057 -1.95465 -1.89978 
-1.72856 -1.17506 -1.1787 -1.13284 -1.03807 -2.05942 -1.90812 -3.71492 -2.98328 
-3.42105 -2.8929 -2.69758 -5.90691 -5.36046 -6.3566 -6.12897 -6.5527 -6.51634 
-6.68834 -4.83371 -4.35787 -3.83989 -6.86916 -6.94163 -7.07513 -7.25935 -6.47768 
-6.9781 -6.22023 6.93889e-18 -0.464883 -0.0776516 -2.68528 -2.95912 -2.56966 -2.76959 
-3.0278 -3.33171 -3.38588 -2.86118 -2.4881 -2.93664 -4.1573 -3.54155 -3.29847 
-3.00528 -3.36138 -3.64669 -1.76237 -1.9873 -2.35372 -3.34822 -2.64925 -2.98662 
-2.56899 -0.825574 -1.23753 -0.958008 -5.25889 -5.63853 -4.99621 -4.60233 -4.5332 
-0.225828 -4.16334e-17 -2.77556e-17 -0.450062 0 -1.38778e-17 -2.52401 -2.40648 -1.59762 
-1.05659 -0.952357 -0.710489 -0.643869 -0.642799 -0.618254 -1.87732 -1.32031 -1.44486 
-3.53973 -3.3232 -2.80572 -2.54166 -5.81319 -5.98119 -5.1488 -5.33497 -6.45029 
-6.63146 -6.78779 -7.09074 -7.31419 -4.72297 -4.23271 -3.73981 -7.46398 -7.62485 
-7.4163 -7.86555 -6.8854 -6.06384 -6.66474 0 0 0 -0.60107 
0 0 -2.02923 -2.23484 -2.3942 -2.49646 -2.99053 -2.33598 -2.6539 
-4.01305 -3.80754 -3.3178 -3.00118 -2.94629 -2.82934 -1.80305 -1.82919 -2.33498 
-2.98935 -2.41726 -2.61996 -0.671167 -1.29747 -1.08066 -0.764369 -5.50101 -4.80214 
-5.30154 -4.28512 -4.47419 0 -1.38778e-17 2.08167e-17 -3.46945e-17 -1.86684 -1.81126 
-2.31406 -1.70307 -1.13489 -1.0124 -0.541442 -0.109535 -0.371164 -1.73472e-18 -0.113226 
-0.126219 -1.21689 -1.15913 -1.08197 -3.20456 -2.72647 -2.32594 -5.70705 -5.8496 
-5.142 -4.8615 -6.42585 -7.07405 -7.30929 -4.64583 -4.14999 -3.65436 -3.16186 
-7.75344 -7.90348 -8.27656 -7.31251 -8.20775 -7.73878 -6.50492 -5.95039 -7.11552 
1.38778e-17 -0.0340899 -1.69825 -1.2799 -1.62792 -1.55357 -1.95675 -2.18525 -2.30543 
-2.81571 -2.01987 -2.42038 -3.67345 -4.1622 -3.18241 -2.87885 -2.66535 -2.62601 
-2.61119 -2.24871 -1.91735 -1.93679 -2.65841 -2.30473 -2.27611 -1.98875 -0.118923 
-0.252155 -1.40694 -1.27223 -0.903668 -0.428126 -4.66892 -5.14487 -5.75656 -1.11765 
-1.61014 -1.01534 -0.783573 -0.910062 -0.400893 -0.0148746 0 0 -0.127141 
0 0 0 1.38778e-17 -0.678814 -0.963869 -2.95891 -2.15099 -2.62165 
-2.09783 -1.54403 -5.67017 -5.08293 -6.35924 -4.61472 -7.04683 -7.72114 -4.08866 
-4.2437 -3.59648 -3.10001 -8.3683 -7.56595 -7.98946 -8.19536 -6.41641 -6.95178 
-6.23569 -7.43092 -3.46945e-18 -3.46945e-18 3.46945e-18 -1.15814 -0.970437 -1.55391 -1.9139 
-1.43646 -1.17539 -1.74816 -1.93481 -2.13453 -2.27496 -3.56776 -4.05842 -4.55101 
-3.069 -2.76426 -2.562 -2.02994 -1.89356 -2.08126 -2.2437 -2.24935 -1.76615 
-1.64178 -1.55489 -1.90456 -1.95075 -1.5638 0 0 -1.38778e-17 0 
2.77556e-17 -1.38932 -1.09729 -1.31967 -0.655316 0 -0.234992 -5.01336 -5.5793 
-5.61979 -6.10826 -1.39996 -0.932347 -0.864765 -0.283696 1.38778e-17 2.77556e-17 1.73472e-18 
0 0 -1.38778e-17 -1.38778e-17 -0.211646 -0.583445 -0.146185 -0.493135 -2.55783 
-1.98933 -2.0451 -1.47982 -5.59593 -6.18332 -5.05149 -5.25701 -4.58164 -4.54505 
-6.3354 -6.74266 -7.0289 -7.71102 -8.36756 -4.08137 -4.06546 -3.58603 -3.07746 
-2.57109 -8.45633 -7.93273 -8.3986 -7.96558 -7.73862 -6.88489 -6.71282 -7.33299 
-0.742348 -0.816339 -0.722618 -1.12436 -1.52786 -1.05995 -0.686612 -1.59035 -1.76839 
-2.98209 -3.48283 -3.95351 -4.42493 -2.62508 -1.97149 -2.48133 -1.494 -1.42343 
-1.4436 -1.89191 -1.51179 -2.13849 -1.95963 -1.13818 -1.24253 -0.976618 -1.19529 
-0.858026 -1.54927 -1.24396 -0.91879 -0.718361 -0.292281 0 -2.77556e-17 -5.40752 
-4.95999 -4.71914 -5.85543 -6.35521 -6.24642 -1.15049 -0.869245 -0.707334 -2.77556e-17 
-1.38778e-17 0 0 1.38778e-17 2.77556e-17 6.93889e-18 0 -0.409155 1.38778e-17 
-2.77556e-17 -2.00439 -1.68415 -1.4224 -1.4274 -5.6379 -5.9298 -5.04408 -4.54141 
-4.2596 -6.30558 -6.47698 -7.29568 -7.04637 -7.71201 -8.40719 -7.89659 -3.58915 
-4.07877 -3.62887 -3.13302 -2.58238 -2.04635 -2.40844 -8.65238 -8.51321 -8.03226 
-7.85976 -7.04358 -7.28497 -6.79819 -6.42043 -0.198899 -0.49927 -0.688777 -0.0314713 
-0.55152 -0.711726 -0.958795 -0.470609 -3.38867 -2.88646 -2.60778 -3.81596 -4.04917 
-4.28556 -2.38527 -1.87777 -1.28962 -1.21755 -1.32988 -1.54235 -0.978708 -1.0564 
-1.8527 -1.62343 -1.49856 -0.581515 -0.814975 -0.552415 -0.71953 -0.862651 -0.489948 
-1.156 -0.867152 -0.430859 -0.0860486 0 0 -5.66949 -5.20932 -4.53018 
-5.90838 -0.912972 -0.810242 -0.269572 -0.340491 2.77556e-17 -1.38778e-17 -1.42569 -1.43959 
-0.796489 -0.798312 -1.23392 -5.63689 -5.04763 -6.30603 -4.59073 -4.12298 -6.95563 
-6.65926 -7.72652 -7.05115 -7.52025 -8.41062 -8.09477 -3.65378 -3.14527 -2.59224 
-2.6754 -2.08675 -2.41404 -8.7152 -8.19942 -8.87247 -7.51086 -6.81668 -6.57811 
-6.1324 -1.38778e-17 0 2.77556e-17 2.77556e-17 1.38778e-17 -0.254915 -0.0615833 -0.337998 
-0.456817 0 0 -0.86108 -0.364205 -0.317849 -2.77556e-17 -2.78073 -2.87531 
-3.11541 -3.40278 -2.24537 -3.64357 -3.87824 -4.12157 -1.73506 -0.789092 -1.21293 
-0.703898 -1.24224 -1.28056 -0.699233 -0.715165 -1.34931 -1.19482 -0.808812 6.93889e-18 
-1.38778e-17 -0.205703 -0.148033 -0.263646 -0.547441 -0.153929 -2.77556e-17 -2.77556e-17 0 
-0.469276 1.04083e-17 0 1.38778e-17 -6.93889e-18 6.93889e-18 -1.38778e-17 -4.77448 -5.46207 
0 1.38778e-17 -0.225602 -0.557379 0 -2.77556e-17 -0.816408 -1.57836 -0.904717 
-0.250228 -5.61879 -6.18335 -5.09421 -5.08005 -6.32502 -4.60824 -4.1414 -3.68272 
-6.39534 -7.08192 -6.42782 -6.75587 -7.09681 -7.75056 -7.16233 -7.79988 -8.44186 
-7.85218 -8.1577 -8.48282 -3.17179 -3.22627 -2.69613 -2.17803 -2.19549 -2.24406 
-2.58734 -8.69018 -7.75948 -7.8286 -8.42776 -8.47425 -8.99787 -8.80149 -7.59147 
-7.21883 -7.07461 -6.38514 -6.04729 -5.70674 6.93889e-18 -6.93889e-18 0 0 
-0.218845 0 6.93889e-18 0 -0.25543 -0.203173 2.77556e-17 -2.7306 -2.83689 
-2.3875 -3.22209 -2.94623 -2.77759 -2.01213 -3.47348 -3.71325 -4.36198 -1.31413 
-1.54176 -0.197393 -1.06549 -0.567684 -1.16746 -0.818153 -0.0862406 -0.224047 -0.380064 
-1.35716 -0.979388 -0.953598 -0.509419 0 0 1.38778e-17 1.73472e-17 2.77556e-17 
-0.175724 2.08167e-17 -2.77556e-17 -1.38778e-17 0 -0.093851 1.38778e-17 -1.38778e-17 -5.03039 
0 2.77556e-17 -0.229473 0 -0.292487 -0.955189 -1.1065 -1.6545 -0.440576 
0 -2.77556e-17 0 -5.71596 -5.20243 -5.2073 -4.66387 -4.17997 -3.72275 
-6.29455 -6.53109 -5.90862 -6.30497 -7.23702 -7.16652 -7.6577 -7.94045 -7.29303 
-8.55906 -3.25837 -2.7626 -2.27569 -1.78504 -2.77319 -2.58785 -2.86255 -8.01592 
-8.69683 -8.60333 -9.11315 -8.60488 -9.23423 -7.33617 -6.70054 -6.92809 -5.92528 
-6.24237 -5.29631 -5.40893 0 6.93889e-18 6.93889e-18 0 1.38778e-17 -2.66954 
-2.22602 -1.96589 -2.65685 -2.6089 -2.76116 -3.02296 -1.41589 -1.65407 -3.28201 
-3.95814 -4.62276 -0.831496 0 1.38778e-17 -0.0445066 -6.93889e-18 -0.369416 -0.4021 
-0.486893 0 0 1.38778e-17 0 6.93889e-18 6.93889e-18 -0.408977 -0.456982 
-0.654834 -0.817927 -0.526178 -0.455532 -0.180623 -1.38778e-17 -1.38778e-17 0 1.38778e-17 
0 0 -0.360062 0 -2.77556e-17 -0.974278 -0.357115 -1.12221 -1.62801 
-5.81729 -5.34317 -4.71525 -4.23775 -3.7692 -3.31458 -6.69143 -5.83768 -5.9964 
-6.08364 -6.3077 -8.05867 -7.56607 -7.40699 -7.08939 -2.39065 -1.82892 -3.01435 
-2.56707 -3.33091 -7.60792 -8.18388 -8.92768 -9.02924 -8.29297 -8.48708 -8.73453 
-9.33192 -7.51421 -6.53435 -6.65596 -7.11515 -5.56175 -5.84764 -4.90303 -4.96206 
-5.1807 -1.78465 -2.48977 -2.03071 -1.53191 -2.64704 -2.28021 -2.80634 -1.26034 
-1.35767 -1.08999 -1.24347 -3.04403 -3.55215 -3.43245 -4.2307 -3.80016 -4.70642 
-4.4275 -0.526867 -0.906843 0 0 -6.93889e-18 -0.123957 -1.38778e-17 -2.77556e-17 
0 -6.93889e-18 -0.102995 -0.474971 -0.118523 -0.0163436 2.77556e-17 0 0 
1.38778e-17 0 0 -0.680786 -0.417988 -5.55112e-17 -2.77556e-17 -1.28131 -0.569177 
-1.94284 -5.39896 -5.1405 -4.8055 -4.26845 -3.92073 -6.8607 -5.7933 -6.1603 
-5.5047 -6.67756 -8.26006 -7.50702 -7.61447 -3.46338 -3.09601 -3.53303 -2.64647 
-2.10822 -2.14405 -7.90536 -8.40074 -8.59599 -9.31193 -8.03568 -7.94877 -8.92379 
-7.21413 -6.1601 -6.21499 -6.83872 -6.47729 -5.88503 -5.48402 -4.80073 -1.32354 
-1.55879 -1.82378 -1.08506 -0.866974 -2.55647 -2.11777 -0.508495 -2.84715 -3.13234 
-3.43224 -3.84228 -4.51303 -4.12969 -0.176735 1.38778e-17 0 0 1.38778e-17 
0 2.77556e-17 -2.77556e-17 2.77556e-17 -0.358232 -0.344462 6.93889e-18 0 1.38778e-17 
0 1.73472e-18 2.77556e-17 -6.93889e-18 -0.0500342 -0.900436 -1.46629 -1.2116 -0.765892 
-0.106737 -1.89732 -4.85783 -4.38403 -3.98243 -4.44824 -7.04482 -5.75818 -6.34456 
-6.21658 -5.64881 -4.97726 -5.15181 -6.50296 -8.44863 -7.95513 -8.35938 -7.75162 
-3.64035 -3.18753 -2.7387 -2.29006 -7.52614 -8.19559 -8.39208 -7.96395 -8.98938 
-8.8908 -7.49784 -7.39747 -7.79195 -9.09419 -8.49589 -7.33223 -6.75204 -7.13768 
-6.12741 -5.78205 -5.12439 -5.31697 -4.4322 -4.70521 -1.09085 -1.34587 -1.45138 
-1.48413 -0.844613 -0.814132 -2.41847 -1.62533 -0.0685287 -0.340914 -2.72748 -3.05231 
-3.75082 -1.38778e-17 0 0 -0.00316399 1.38778e-17 2.77556e-17 0 0 
0 -0.981149 -1.59549 -1.18164 -0.289141 2.77556e-17 -1.6524 -1.83608 -4.09769 
-4.55961 -7.35504 -7.24444 -5.67862 -5.86809 -6.06734 -5.21162 -5.0253 -6.74126 
-7.94835 -7.67147 -3.95392 -3.83213 -3.37671 -2.92603 -2.4787 -7.56303 -8.27477 
-8.67632 -7.45864 -7.86794 -9.07822 -7.08082 -6.9983 -7.13932 -6.74032 -8.62905 
-6.39591 -6.8117 -6.47598 -5.44812 -5.79384 -6.01207 -5.11061 -4.08931 -4.20693 
-4.43015 -0.832831 -1.08277 -0.922596 -1.25758 -0.605423 -2.00449 -2.11294 -1.61002 
0 -6.93889e-18 -6.93889e-18 0 -0.124771 -2.39193 -2.84505 -3.37917 -3.95279 
0 0 4.33681e-19 -4.33681e-19 -0.412401 -0.607901 -0.689968 -1.37905 -1.03691 
1.38778e-17 1.04083e-17 -1.38778e-17 -2.0337 -4.25997 -4.76196 -7.4535 -6.90343 -5.48226 
-5.9211 -6.21233 -5.37479 -8.08679 -7.65994 -4.49421 -4.03615 -3.40835 -2.99762 
-2.6108 -7.544 -7.95574 -8.36539 -7.05216 -7.1324 -8.81751 -8.77679 -8.95107 
-8.8974 -6.65259 -6.60435 -6.32706 -6.64577 -8.54261 -8.18971 -6.10645 -6.21417 
-5.47298 -5.55259 -5.61948 -4.7885 -5.34534 -5.0064 -4.11642 -0.359754 -0.619416 
-0.274567 -0.503079 -0.53038 -1.26269 -0.827396 -1.97918 -1.38778e-17 0 -2.68874 
-3.04851 -3.74775 -3.46945e-18 -0.0268085 -0.228771 -0.905287 -1.58154 -1.47155 -1.11276 
-2.19173 -1.63774 -4.95063 -7.17939 -6.96618 -6.45443 -5.60812 -5.81341 -6.02295 
-7.87262 -5.15567 -4.7036 -4.24762 -3.5788 -3.78981 -3.12533 -2.67933 -7.47574 
-7.87923 -8.06853 -8.4851 -6.68753 -6.72132 -6.35219 -6.40464 -6.81579 -8.55127 
-9.0143 -8.89861 -5.87246 -6.2468 -8.34494 -5.45672 -5.83012 -5.77779 -5.78607 
-5.47393 -5.16373 -5.12106 -4.50216 -4.73444 -3.85299 -4.47838 -3.42451 -1.38778e-17 
-0.152876 -0.176616 1.38778e-17 0 -0.0982029 -0.517093 -1.14396 -1.66108 -1.57478 
-2.34968 -1.91475 -3.056 -2.73657 -3.46945e-18 -1.38778e-17 0 -0.440291 0 
-6.93889e-18 2.77556e-17 -1.3216 -0.651632 -2.23471 -1.78178 -6.92182 -7.39895 -6.69978 
-6.61206 -5.36248 -5.50777 -5.57335 -6.23671 -5.78656 -7.71763 -8.08565 -5.22273 
-4.91354 -4.46159 -3.9106 -3.33484 -2.88516 -2.4371 -7.23304 -7.65056 -7.77917 
-8.20057 -5.92934 -5.59543 -5.99766 -6.22015 -6.58651 -8.75838 -8.62173 -5.52453 
-5.83853 -5.30937 -4.81157 -5.39663 -5.13642 -5.09341 -5.00914 -4.69803 -4.21 
-4.31287 -3.54384 -3.79155 -3.17389 -1.38778e-17 1.38778e-17 0 0 2.77556e-17 
1.38778e-17 6.93889e-18 -0.953822 -0.276306 -1.38778e-17 -1.36602 -2.09873 -2.61778 -2.04437 
-1.78057 -2.88842 1.38778e-17 -1.98634 -1.53269 -0.864076 -6.93889e-18 -0.195601 -6.71405 
-7.1438 -7.61654 -5.12969 -6.45584 -5.85251 -5.34444 -7.83354 -8.03031 -8.29663 
-4.68254 -4.00616 -4.2289 -3.55459 -3.0986 -2.64834 -6.91239 -7.35499 -7.55715 
-7.21919 -7.80339 -7.91956 -8.35205 -5.44118 -5.19989 -5.42424 -5.8212 -5.68765 
-6.095 -6.50907 -8.55459 -4.51782 -4.72011 -4.91891 -4.75067 -4.9604 -4.59468 
-4.06379 -3.70706 -4.20277 -4.19426 -3.12511 -0.70742 -1.18447 -0.232293 -1.38778e-17 
-1.69076 -2.45531 -2.22969 -2.19684 -2.43097 -2.67655 -2.1994 -1.75024 -1.08289 
-0.41312 -0.63183 0 0 -6.82206 -7.36588 -6.00216 -6.67806 -6.22154 
-5.89594 -5.55929 -4.90307 -7.59209 -8.05536 -8.17867 -8.35376 -4.45747 -3.77481 
-4.0041 -3.19377 -3.00736 -2.86775 -2.41854 -6.63684 -7.06396 -7.49113 -7.21007 
-7.64278 -8.08007 -7.97873 -8.26053 -4.80848 -5.00151 -5.28435 -4.98143 -5.38624 
-5.79673 -6.21368 -4.35624 -4.2775 -4.26853 -3.99693 -4.40654 -4.46521 -4.30294 
-4.03754 -3.9874 -3.81668 -3.10311 -3.63776 -2.57003 -0.361551 -0.550493 -1.14075 
-1.59965 -0.126876 0 0 1.38778e-17 -1.94611 -2.54289 -2.02734 -1.97263 
-1.305 -0.857081 -0.182416 -2.08167e-17 6.93889e-18 -0.403865 -6.88844 -7.12853 -6.8905 
-6.44351 -5.96049 -5.12656 -5.77633 -5.34415 -7.35236 -7.69567 -8.00192 -7.77955 
-8.03627 -4.68901 -4.23643 -3.32066 -3.546 -3.77687 -3.07968 -2.63955 -6.3523 
-6.78121 -6.93401 -7.37102 -7.80955 -7.86347 -7.4184 -7.70851 -7.71594 -4.51683 
-4.38234 -4.10021 -4.88524 -4.58054 -4.90508 -5.32711 -5.66304 -5.93264 -3.76113 
-3.89611 -3.65636 -3.62839 -3.94663 -3.71243 -3.58963 -3.50837 -3.36201 -2.71276 
-3.09498 -3.26996 -2.17132 -2.57484 -2.04087 -0.275593 -1.38778e-17 -6.93889e-18 -0.126118 
-1.02413 -0.408482 -1.29635 -1.38479 0 -1.74354 -1.41828 -1.52866 -2.19337 
-0.628172 -1.08361 1.38778e-17 0 -2.77556e-17 -1.38778e-17 -4.16334e-17 -6.90191 -5.99535 
-6.66609 -6.21681 -4.90986 -5.55825 -5.12666 -7.11453 -7.23789 -6.86111 -7.33529 
-7.82519 -7.49283 -4.46446 -4.0078 -3.08485 -3.31782 -3.55141 -2.41441 -2.86397 
-3.11541 -6.19282 -6.35323 -6.50349 -6.46935 -6.66661 -6.43513 -7.1044 -7.54005 
-7.54304 -7.17962 -7.12491 -7.44511 -4.18322 -4.0278 -3.78909 -4.45359 -4.68797 
-5.09572 -5.50848 -5.64957 -3.38029 -3.2803 -3.4568 -3.02266 -3.32769 -3.5085 
-3.17828 -2.95358 -2.89287 -3.26432 -3.21617 -2.5721 -2.52223 -3.08138 -2.00687 
-2.03713 -1.46301 0 2.77556e-17 -1.38778e-17 0 0 -0.523364 -0.736791 
1.38778e-17 -1.38778e-17 -0.846215 -1.46233 -0.867038 -1.74954 -0.405163 -0.851294 -0.178978 
1.38778e-17 -1.30264 -5.96014 -6.43905 -4.69177 -5.77694 -5.34221 -4.91093 -6.66736 
-6.74901 -6.64253 -6.83585 -6.85511 -7.25881 -4.23862 -3.59377 -3.78214 -3.24843 
-1.96805 -2.6405 -3.09465 -6.07414 -5.80171 -6.23164 -5.96637 -6.22154 -6.4027 
-6.8356 -7.26577 -7.28931 -6.65378 -6.86099 -6.98638 -6.83683 -7.18357 -3.94767 
-3.70278 -3.3982 -3.0899 -3.48442 -4.28406 -3.99364 -4.40101 -4.81263 -5.2288 
-5.37656 -2.5705 -2.97118 -2.90956 -2.62521 -3.00944 -2.92565 -2.69755 -2.74423 
-2.66788 -2.54512 -1.98204 -2.24727 -2.47664 -1.77847 -1.45524 -1.33343 -1.38778e-17 
-0.594735 -0.754151 -1.00163 -0.86781 -0.347382 -0.193275 -0.605528 -0.0809732 0 
6.93889e-18 0 -1.05498 -1.12448 -2.77556e-17 0 -1.51954 -5.85497 -5.99737 
-6.22007 -5.13692 -5.58505 -4.47053 -6.12194 -6.23787 -6.4423 -6.4985 -6.25463 
-6.39906 -6.62445 -6.45837 -3.88436 -3.57184 -3.32807 -4.02222 -1.93476 -2.19021 
-1.67433 -2.87583 -5.53541 -5.70053 -6.02233 -6.13159 -6.55965 -6.98558 -6.9617 
-6.27573 -6.53623 -6.59788 -3.88278 -3.40177 -3.1861 -3.5892 -2.75188 -2.39015 
-3.29885 -3.70732 -4.11914 -4.53533 -4.95475 -5.1088 -2.28569 -2.19991 -2.38395 
-1.99822 -2.24362 -2.3917 -2.16112 -2.31048 -1.99871 -2.38658 -2.3213 -2.05053 
-1.93457 -1.41709 -0.865907 -2.77556e-17 -0.179898 -0.577473 -0.231683 1.38778e-17 0 
1.38778e-17 -0.208916 -0.855321 -1.29645 0 6.93889e-18 6.93889e-18 0 -5.79118 
-6.28727 -5.18928 -5.32001 -4.7118 -5.89656 -6.04605 -5.73309 -6.29457 -6.03152 
-4.16752 -3.82587 -3.12081 -4.27388 -1.97298 -1.74297 -2.41734 -2.78394 -5.27114 
-5.43028 -5.93193 -6.2796 -6.70033 -6.82909 -6.74754 -5.78322 -5.88262 -6.23554 
-6.34655 -2.48776 -2.89219 -2.19405 -2.60192 -3.01248 -3.42635 -3.84326 -4.26332 
-4.68518 -4.84433 -1.86592 -1.76948 -1.53984 -1.92368 -1.7713 -1.61128 -1.30335 
-1.69196 -1.90425 -1.82062 -2.17946 -2.09506 -1.8339 -1.69473 -1.49384 -1.33913 
-1.38532 -1.79475 -0.832787 -0.945089 1.38778e-17 -0.20854 -2.77556e-17 -2.77556e-17 -0.208372 
-0.431577 0 -0.525798 -1.11396 -1.52926 -5.5957 -6.01201 -5.3678 -6.07837 
-4.94815 -5.18315 -4.84338 -4.40184 -5.64244 -5.64265 -5.51296 -5.82026 -5.77711 
-5.38191 -5.62185 -5.81651 -3.37645 -4.08824 -3.1329 -2.21936 -2.6632 -2.92383 
-5.0052 -5.89642 -5.15854 -5.57807 -5.68252 -5.99546 -6.6701 -6.40599 -6.5341 
-5.39858 -5.61367 -5.82944 -5.57453 -5.94381 -5.78971 -6.08279 -5.81964 -2.08772 
-1.78859 -2.19333 -1.90593 -2.31882 -2.73395 -3.15235 -3.57302 -3.99582 -4.41977 
-4.58049 -1.21472 -0.841105 -1.22429 -1.35171 -0.91953 -0.61132 -1.02437 -1.58621 
-1.48708 -1.44293 -1.20066 -0.789382 -0.698111 -1.14987 -1.01216 -0.667718 -1.09493 
-0.812108 -0.167753 -3.46945e-18 1.38778e-17 -0.655809 -0.0895423 0 -1.3351 -1.66082 
-1.78035 -5.57587 -4.77022 -5.41408 -4.52307 -5.53236 -5.05815 -5.19008 -5.41162 
-5.50837 -4.86794 -4.98953 -5.27405 -3.49303 -3.64946 -4.35481 -3.19737 -2.22433 
-2.48013 -1.88989 -4.31541 -4.73757 -4.88364 -5.29578 -5.44258 -5.70166 -6.28597 
-6.33238 -6.09562 -4.98759 -5.25115 -5.23141 -5.70929 -5.34174 -5.62578 -5.84214 
-1.39322 -1.09626 -1.49789 -1.21245 -1.62592 -2.0429 -2.51107 -2.97667 -3.40273 
-3.64423 -3.73127 -4.15604 -3.8926 -0.465966 -0.156491 -0.579968 -1.14881 -0.240179 
0 -1.38778e-17 -0.304014 -0.980715 -0.416762 -0.847042 -1.12711 -1.07293 -0.422695 